+ 0.217874 1 2 tcp 40 ------- 1 1.1 2.0 0 0
- 0.217874 1 2 tcp 40 ------- 1 1.1 2.0 0 0
r 0.227877 1 2 tcp 40 ------- 1 1.1 2.0 0 0
+ 0.227877 2 1 ack 40 ------- 1 2.0 1.1 0 1
- 0.227877 2 1 ack 40 ------- 1 2.0 1.1 0 1
r 0.23788 2 1 ack 40 ------- 1 2.0 1.1 0 1
+ 0.23788 1 2 tcp 1040 ------- 1 1.1 2.0 1 2
- 0.23788 1 2 tcp 1040 ------- 1 1.1 2.0 1 2
+ 0.244618 4 0 tcp 40 ------- 1 4.1 0.1 0 3
- 0.244618 4 0 tcp 40 ------- 1 4.1 0.1 0 3
r 0.247964 1 2 tcp 1040 ------- 1 1.1 2.0 1 2
+ 0.247964 2 1 ack 40 ------- 1 2.0 1.1 1 4
- 0.247964 2 1 ack 40 ------- 1 2.0 1.1 1 4
r 0.254621 4 0 tcp 40 ------- 1 4.1 0.1 0 3
+ 0.254621 0 4 ack 40 ------- 1 0.1 4.1 0 5
- 0.254621 0 4 ack 40 ------- 1 0.1 4.1 0 5
r 0.257967 2 1 ack 40 ------- 1 2.0 1.1 1 4
r 0.264625 0 4 ack 40 ------- 1 0.1 4.1 0 5
+ 0.264625 4 0 tcp 1040 ------- 1 4.1 0.1 1 6
- 0.264625 4 0 tcp 1040 ------- 1 4.1 0.1 1 6
+ 0.264625 4 0 tcp 1040 ------- 1 4.1 0.1 2 7
- 0.264708 4 0 tcp 1040 ------- 1 4.1 0.1 2 7
r 0.274708 4 0 tcp 1040 ------- 1 4.1 0.1 1 6
+ 0.274708 0 4 ack 40 ------- 1 0.1 4.1 1 8
- 0.274708 0 4 ack 40 ------- 1 0.1 4.1 1 8
r 0.274791 4 0 tcp 1040 ------- 1 4.1 0.1 2 7
+ 0.274791 0 4 ack 40 ------- 1 0.1 4.1 2 9
- 0.274791 0 4 ack 40 ------- 1 0.1 4.1 2 9
r 0.284711 0 4 ack 40 ------- 1 0.1 4.1 1 8
r 0.284794 0 4 ack 40 ------- 1 0.1 4.1 2 9
+ 0.317416 0 1 tcp 40 ------- 1 0.0 1.0 0 10
- 0.317416 0 1 tcp 40 ------- 1 0.0 1.0 0 10
r 0.327419 0 1 tcp 40 ------- 1 0.0 1.0 0 10
+ 0.327419 1 0 ack 40 ------- 1 1.0 0.0 0 11
- 0.327419 1 0 ack 40 ------- 1 1.0 0.0 0 11
r 0.337422 1 0 ack 40 ------- 1 1.0 0.0 0 11
+ 0.337422 0 1 tcp 1040 ------- 1 0.0 1.0 1 12
- 0.337422 0 1 tcp 1040 ------- 1 0.0 1.0 1 12
+ 0.345615 4 0 tcp 1040 ------- 1 4.1 0.1 3 13
- 0.345615 4 0 tcp 1040 ------- 1 4.1 0.1 3 13
r 0.347505 0 1 tcp 1040 ------- 1 0.0 1.0 1 12
+ 0.347505 1 0 ack 40 ------- 1 1.0 0.0 1 14
- 0.347505 1 0 ack 40 ------- 1 1.0 0.0 1 14
r 0.355698 4 0 tcp 1040 ------- 1 4.1 0.1 3 13
+ 0.355698 0 4 ack 40 ------- 1 0.1 4.1 3 15
- 0.355698 0 4 ack 40 ------- 1 0.1 4.1 3 15
r 0.357509 1 0 ack 40 ------- 1 1.0 0.0 1 14
r 0.365702 0 4 ack 40 ------- 1 0.1 4.1 3 15
+ 0.3807 2 3 tcp 40 ------- 1 2.1 3.0 0 16
- 0.3807 2 3 tcp 40 ------- 1 2.1 3.0 0 16
r 0.390703 2 3 tcp 40 ------- 1 2.1 3.0 0 16
+ 0.390703 3 2 ack 40 ------- 1 3.0 2.1 0 17
- 0.390703 3 2 ack 40 ------- 1 3.0 2.1 0 17
r 0.400707 3 2 ack 40 ------- 1 3.0 2.1 0 17
+ 0.400707 2 3 tcp 1040 ------- 1 2.1 3.0 1 18
- 0.400707 2 3 tcp 1040 ------- 1 2.1 3.0 1 18
+ 0.40214 2 3 tcp 1040 ------- 1 2.1 3.0 2 19
- 0.40214 2 3 tcp 1040 ------- 1 2.1 3.0 2 19
r 0.41079 2 3 tcp 1040 ------- 1 2.1 3.0 1 18
+ 0.41079 3 2 ack 40 ------- 1 3.0 2.1 1 20
- 0.41079 3 2 ack 40 ------- 1 3.0 2.1 1 20
r 0.412223 2 3 tcp 1040 ------- 1 2.1 3.0 2 19
+ 0.412223 3 2 ack 40 ------- 1 3.0 2.1 2 21
- 0.412223 3 2 ack 40 ------- 1 3.0 2.1 2 21
r 0.420793 3 2 ack 40 ------- 1 3.0 2.1 1 20
r 0.422226 3 2 ack 40 ------- 1 3.0 2.1 2 21
+ 0.435198 1 2 tcp 1040 ------- 1 1.1 2.0 2 22
- 0.435198 1 2 tcp 1040 ------- 1 1.1 2.0 2 22
r 0.445281 1 2 tcp 1040 ------- 1 1.1 2.0 2 22
+ 0.445281 2 1 ack 40 ------- 1 2.0 1.1 2 23
- 0.445281 2 1 ack 40 ------- 1 2.0 1.1 2 23
r 0.455284 2 1 ack 40 ------- 1 2.0 1.1 2 23
+ 0.491824 0 1 tcp 1040 ------- 1 0.0 1.0 2 24
- 0.491824 0 1 tcp 1040 ------- 1 0.0 1.0 2 24
r 0.501907 0 1 tcp 1040 ------- 1 0.0 1.0 2 24
+ 0.501907 1 0 ack 40 ------- 1 1.0 0.0 2 25
- 0.501907 1 0 ack 40 ------- 1 1.0 0.0 2 25
+ 0.507482 2 3 tcp 1040 ------- 1 2.1 3.0 3 26
- 0.507482 2 3 tcp 1040 ------- 1 2.1 3.0 3 26
r 0.51191 1 0 ack 40 ------- 1 1.0 0.0 2 25
+ 0.515134 3 4 tcp 40 ------- 1 3.1 4.0 0 27
- 0.515134 3 4 tcp 40 ------- 1 3.1 4.0 0 27
r 0.517566 2 3 tcp 1040 ------- 1 2.1 3.0 3 26
+ 0.517566 3 2 ack 40 ------- 1 3.0 2.1 3 28
- 0.517566 3 2 ack 40 ------- 1 3.0 2.1 3 28
r 0.525138 3 4 tcp 40 ------- 1 3.1 4.0 0 27
+ 0.525138 4 3 ack 40 ------- 1 4.0 3.1 0 29
- 0.525138 4 3 ack 40 ------- 1 4.0 3.1 0 29
r 0.527569 3 2 ack 40 ------- 1 3.0 2.1 3 28
r 0.535141 4 3 ack 40 ------- 1 4.0 3.1 0 29
+ 0.535141 3 4 tcp 1040 ------- 1 3.1 4.0 1 30
- 0.535141 3 4 tcp 1040 ------- 1 3.1 4.0 1 30
r 0.545224 3 4 tcp 1040 ------- 1 3.1 4.0 1 30
+ 0.545224 4 3 ack 40 ------- 1 4.0 3.1 1 31
- 0.545224 4 3 ack 40 ------- 1 4.0 3.1 1 31
r 0.555227 4 3 ack 40 ------- 1 4.0 3.1 1 31
+ 0.570643 1 2 tcp 1040 ------- 1 1.1 2.0 3 32
- 0.570643 1 2 tcp 1040 ------- 1 1.1 2.0 3 32
+ 0.573135 2 3 tcp 1040 ------- 1 2.1 3.0 4 33
- 0.573135 2 3 tcp 1040 ------- 1 2.1 3.0 4 33
r 0.580727 1 2 tcp 1040 ------- 1 1.1 2.0 3 32
+ 0.580727 2 1 ack 40 ------- 1 2.0 1.1 3 34
- 0.580727 2 1 ack 40 ------- 1 2.0 1.1 3 34
+ 0.581305 0 1 tcp 1040 ------- 1 0.0 1.0 3 35
- 0.581305 0 1 tcp 1040 ------- 1 0.0 1.0 3 35
+ 0.581914 4 0 tcp 1040 ---A--- 1 4.1 0.1 4 36
- 0.581914 4 0 tcp 1040 ---A--- 1 4.1 0.1 4 36
r 0.583218 2 3 tcp 1040 ------- 1 2.1 3.0 4 33
+ 0.583218 3 2 ack 40 ------- 1 3.0 2.1 4 37
- 0.583218 3 2 ack 40 ------- 1 3.0 2.1 4 37
+ 0.587977 2 3 tcp 1040 ------- 1 2.1 3.0 5 38
- 0.587977 2 3 tcp 1040 ------- 1 2.1 3.0 5 38
r 0.59073 2 1 ack 40 ------- 1 2.0 1.1 3 34
r 0.591388 0 1 tcp 1040 ------- 1 0.0 1.0 3 35
+ 0.591388 1 0 ack 40 ------- 1 1.0 0.0 3 39
- 0.591388 1 0 ack 40 ------- 1 1.0 0.0 3 39
+ 0.591467 3 4 tcp 1040 ------- 1 3.1 4.0 2 40
- 0.591467 3 4 tcp 1040 ------- 1 3.1 4.0 2 40
r 0.591997 4 0 tcp 1040 ---A--- 1 4.1 0.1 4 36
+ 0.591997 0 4 ack 40 ------- 1 0.1 4.1 4 41
- 0.591997 0 4 ack 40 ------- 1 0.1 4.1 4 41
r 0.593222 3 2 ack 40 ------- 1 3.0 2.1 4 37
r 0.598061 2 3 tcp 1040 ------- 1 2.1 3.0 5 38
+ 0.598061 3 2 ack 40 ------- 1 3.0 2.1 5 42
- 0.598061 3 2 ack 40 ------- 1 3.0 2.1 5 42
+ 0.598761 0 1 tcp 1040 ------- 1 0.0 1.0 4 43
- 0.598761 0 1 tcp 1040 ------- 1 0.0 1.0 4 43
r 0.601391 1 0 ack 40 ------- 1 1.0 0.0 3 39
r 0.60155 3 4 tcp 1040 ------- 1 3.1 4.0 2 40
+ 0.60155 4 3 ack 40 ------- 1 4.0 3.1 2 44
- 0.60155 4 3 ack 40 ------- 1 4.0 3.1 2 44
r 0.602 0 4 ack 40 ------- 1 0.1 4.1 4 41
+ 0.607416 1 2 tcp 1040 ------- 1 1.1 2.0 4 45
- 0.607416 1 2 tcp 1040 ------- 1 1.1 2.0 4 45
+ 0.607588 3 4 tcp 1040 ------- 1 3.1 4.0 3 46
- 0.607588 3 4 tcp 1040 ------- 1 3.1 4.0 3 46
r 0.608064 3 2 ack 40 ------- 1 3.0 2.1 5 42
r 0.608844 0 1 tcp 1040 ------- 1 0.0 1.0 4 43
+ 0.608844 1 0 ack 40 ------- 1 1.0 0.0 4 47
- 0.608844 1 0 ack 40 ------- 1 1.0 0.0 4 47
r 0.611553 4 3 ack 40 ------- 1 4.0 3.1 2 44
r 0.617499 1 2 tcp 1040 ------- 1 1.1 2.0 4 45
+ 0.617499 2 1 ack 40 ------- 1 2.0 1.1 4 48
- 0.617499 2 1 ack 40 ------- 1 2.0 1.1 4 48
+ 0.617576 3 4 tcp 1040 ------- 1 3.1 4.0 4 49
- 0.617576 3 4 tcp 1040 ------- 1 3.1 4.0 4 49
r 0.617672 3 4 tcp 1040 ------- 1 3.1 4.0 3 46
+ 0.617672 4 3 ack 40 ------- 1 4.0 3.1 3 50
- 0.617672 4 3 ack 40 ------- 1 4.0 3.1 3 50
r 0.618848 1 0 ack 40 ------- 1 1.0 0.0 4 47
r 0.627502 2 1 ack 40 ------- 1 2.0 1.1 4 48
r 0.62766 3 4 tcp 1040 ------- 1 3.1 4.0 4 49
+ 0.62766 4 3 ack 40 ------- 1 4.0 3.1 4 51
- 0.62766 4 3 ack 40 ------- 1 4.0 3.1 4 51
r 0.627675 4 3 ack 40 ------- 1 4.0 3.1 3 50
+ 0.634567 1 2 tcp 1040 ------- 1 1.1 2.0 5 52
- 0.634567 1 2 tcp 1040 ------- 1 1.1 2.0 5 52
r 0.637663 4 3 ack 40 ------- 1 4.0 3.1 4 51
+ 0.637718 0 1 tcp 1040 ------- 1 0.0 1.0 5 53
- 0.637718 0 1 tcp 1040 ------- 1 0.0 1.0 5 53
r 0.64465 1 2 tcp 1040 ------- 1 1.1 2.0 5 52
+ 0.64465 2 1 ack 40 ------- 1 2.0 1.1 5 54
- 0.64465 2 1 ack 40 ------- 1 2.0 1.1 5 54
r 0.647801 0 1 tcp 1040 ------- 1 0.0 1.0 5 53
+ 0.647801 1 0 ack 40 ------- 1 1.0 0.0 5 55
- 0.647801 1 0 ack 40 ------- 1 1.0 0.0 5 55
r 0.654653 2 1 ack 40 ------- 1 2.0 1.1 5 54
r 0.657804 1 0 ack 40 ------- 1 1.0 0.0 5 55
+ 0.707835 3 4 tcp 1040 ------- 1 3.1 4.0 5 56
- 0.707835 3 4 tcp 1040 ------- 1 3.1 4.0 5 56
r 0.717918 3 4 tcp 1040 ------- 1 3.1 4.0 5 56
+ 0.717918 4 3 ack 40 ------- 1 4.0 3.1 5 57
- 0.717918 4 3 ack 40 ------- 1 4.0 3.1 5 57
r 0.727922 4 3 ack 40 ------- 1 4.0 3.1 5 57
+ 0.728301 0 1 tcp 1040 ------- 1 0.0 1.0 6 58
- 0.728301 0 1 tcp 1040 ------- 1 0.0 1.0 6 58
+ 0.73018 2 3 tcp 1040 ------- 1 2.1 3.0 6 59
- 0.73018 2 3 tcp 1040 ------- 1 2.1 3.0 6 59
+ 0.734626 4 0 tcp 1040 ------- 1 4.1 0.1 5 60
- 0.734626 4 0 tcp 1040 ------- 1 4.1 0.1 5 60
+ 0.735703 2 3 tcp 1040 ------- 1 2.1 3.0 7 61
- 0.735703 2 3 tcp 1040 ------- 1 2.1 3.0 7 61
r 0.738384 0 1 tcp 1040 ------- 1 0.0 1.0 6 58
+ 0.738384 1 0 ack 40 ------- 1 1.0 0.0 6 62
- 0.738384 1 0 ack 40 ------- 1 1.0 0.0 6 62
+ 0.740242 0 1 tcp 1040 ------- 1 0.0 1.0 7 63
- 0.740242 0 1 tcp 1040 ------- 1 0.0 1.0 7 63
r 0.740263 2 3 tcp 1040 ------- 1 2.1 3.0 6 59
+ 0.740263 3 2 ack 40 ------- 1 3.0 2.1 6 64
- 0.740263 3 2 ack 40 ------- 1 3.0 2.1 6 64
r 0.744709 4 0 tcp 1040 ------- 1 4.1 0.1 5 60
+ 0.744709 0 4 ack 40 ------- 1 0.1 4.1 5 65
- 0.744709 0 4 ack 40 ------- 1 0.1 4.1 5 65
r 0.745786 2 3 tcp 1040 ------- 1 2.1 3.0 7 61
+ 0.745786 3 2 ack 40 ------- 1 3.0 2.1 7 66
- 0.745786 3 2 ack 40 ------- 1 3.0 2.1 7 66
+ 0.746128 4 0 tcp 1040 ------- 1 4.1 0.1 6 67
- 0.746128 4 0 tcp 1040 ------- 1 4.1 0.1 6 67
r 0.748387 1 0 ack 40 ------- 1 1.0 0.0 6 62
r 0.750266 3 2 ack 40 ------- 1 3.0 2.1 6 64
r 0.750325 0 1 tcp 1040 ------- 1 0.0 1.0 7 63
+ 0.750325 1 0 ack 40 ------- 1 1.0 0.0 7 68
- 0.750325 1 0 ack 40 ------- 1 1.0 0.0 7 68
r 0.754712 0 4 ack 40 ------- 1 0.1 4.1 5 65
r 0.755789 3 2 ack 40 ------- 1 3.0 2.1 7 66
r 0.756211 4 0 tcp 1040 ------- 1 4.1 0.1 6 67
+ 0.756211 0 4 ack 40 ------- 1 0.1 4.1 6 69
- 0.756211 0 4 ack 40 ------- 1 0.1 4.1 6 69
r 0.760328 1 0 ack 40 ------- 1 1.0 0.0 7 68
r 0.766215 0 4 ack 40 ------- 1 0.1 4.1 6 69
+ 0.856025 1 2 tcp 1040 ---A--- 1 1.1 2.0 6 70
- 0.856025 1 2 tcp 1040 ---A--- 1 1.1 2.0 6 70
r 0.866109 1 2 tcp 1040 ---A--- 1 1.1 2.0 6 70
+ 0.866109 2 1 ack 40 ------- 1 2.0 1.1 6 71
- 0.866109 2 1 ack 40 ------- 1 2.0 1.1 6 71
+ 0.875305 3 4 tcp 1040 ------- 1 3.1 4.0 6 72
- 0.875305 3 4 tcp 1040 ------- 1 3.1 4.0 6 72
r 0.876112 2 1 ack 40 ------- 1 2.0 1.1 6 71
r 0.885388 3 4 tcp 1040 ------- 1 3.1 4.0 6 72
+ 0.885388 4 3 ack 40 ------- 1 4.0 3.1 6 73
- 0.885388 4 3 ack 40 ------- 1 4.0 3.1 6 73
r 0.895391 4 3 ack 40 ------- 1 4.0 3.1 6 73
+ 0.90794 1 2 tcp 1040 ------- 1 1.1 2.0 7 74
- 0.90794 1 2 tcp 1040 ------- 1 1.1 2.0 7 74
r 0.918023 1 2 tcp 1040 ------- 1 1.1 2.0 7 74
+ 0.918023 2 1 ack 40 ------- 1 2.0 1.1 7 75
- 0.918023 2 1 ack 40 ------- 1 2.0 1.1 7 75
r 0.928027 2 1 ack 40 ------- 1 2.0 1.1 7 75
+ 0.954601 2 3 tcp 1040 ------- 1 2.1 3.0 8 76
- 0.954601 2 3 tcp 1040 ------- 1 2.1 3.0 8 76
r 0.964684 2 3 tcp 1040 ------- 1 2.1 3.0 8 76
+ 0.964684 3 2 ack 40 ------- 1 3.0 2.1 8 77
- 0.964684 3 2 ack 40 ------- 1 3.0 2.1 8 77
r 0.974687 3 2 ack 40 ------- 1 3.0 2.1 8 77
+ 0.984469 3 4 tcp 1040 ------- 1 3.1 4.0 7 78
- 0.984469 3 4 tcp 1040 ------- 1 3.1 4.0 7 78
r 0.994553 3 4 tcp 1040 ------- 1 3.1 4.0 7 78
+ 0.994553 4 3 ack 40 ------- 1 4.0 3.1 7 79
- 0.994553 4 3 ack 40 ------- 1 4.0 3.1 7 79
+ 0.994854 2 3 tcp 1040 ------- 1 2.1 3.0 9 80
- 0.994854 2 3 tcp 1040 ------- 1 2.1 3.0 9 80
r 1.004556 4 3 ack 40 ------- 1 4.0 3.1 7 79
r 1.004937 2 3 tcp 1040 ------- 1 2.1 3.0 9 80
+ 1.004937 3 2 ack 40 ------- 1 3.0 2.1 9 81
- 1.004937 3 2 ack 40 ------- 1 3.0 2.1 9 81
r 1.01494 3 2 ack 40 ------- 1 3.0 2.1 9 81
+ 1.024281 0 1 tcp 1040 ---A--- 1 0.0 1.0 8 82
- 1.024281 0 1 tcp 1040 ---A--- 1 0.0 1.0 8 82
+ 1.030711 2 3 tcp 1040 ------- 1 2.1 3.0 10 83
- 1.030711 2 3 tcp 1040 ------- 1 2.1 3.0 10 83
r 1.034364 0 1 tcp 1040 ---A--- 1 0.0 1.0 8 82
+ 1.034364 1 0 ack 40 ------- 1 1.0 0.0 8 84
- 1.034364 1 0 ack 40 ------- 1 1.0 0.0 8 84
r 1.040794 2 3 tcp 1040 ------- 1 2.1 3.0 10 83
+ 1.040794 3 2 ack 40 ------- 1 3.0 2.1 10 85
- 1.040794 3 2 ack 40 ------- 1 3.0 2.1 10 85
+ 1.043875 2 3 tcp 1040 ------- 1 2.1 3.0 11 86
- 1.043875 2 3 tcp 1040 ------- 1 2.1 3.0 11 86
r 1.044368 1 0 ack 40 ------- 1 1.0 0.0 8 84
r 1.050798 3 2 ack 40 ------- 1 3.0 2.1 10 85
r 1.053959 2 3 tcp 1040 ------- 1 2.1 3.0 11 86
+ 1.053959 3 2 ack 40 ------- 1 3.0 2.1 11 87
- 1.053959 3 2 ack 40 ------- 1 3.0 2.1 11 87
r 1.063962 3 2 ack 40 ------- 1 3.0 2.1 11 87
+ 1.085011 0 1 tcp 1040 ------- 1 0.0 1.0 9 88
- 1.085011 0 1 tcp 1040 ------- 1 0.0 1.0 9 88
r 1.095094 0 1 tcp 1040 ------- 1 0.0 1.0 9 88
+ 1.095094 1 0 ack 40 ------- 1 1.0 0.0 9 89
- 1.095094 1 0 ack 40 ------- 1 1.0 0.0 9 89
r 1.105097 1 0 ack 40 ------- 1 1.0 0.0 9 89
+ 1.117413 1 2 tcp 1040 ------- 1 1.1 2.0 8 90
- 1.117413 1 2 tcp 1040 ------- 1 1.1 2.0 8 90
+ 1.12034 3 4 tcp 1040 ------- 1 3.1 4.0 8 91
- 1.12034 3 4 tcp 1040 ------- 1 3.1 4.0 8 91
r 1.127496 1 2 tcp 1040 ------- 1 1.1 2.0 8 90
+ 1.127496 2 1 ack 40 ------- 1 2.0 1.1 8 92
- 1.127496 2 1 ack 40 ------- 1 2.0 1.1 8 92
r 1.130423 3 4 tcp 1040 ------- 1 3.1 4.0 8 91
+ 1.130423 4 3 ack 40 ------- 1 4.0 3.1 8 93
- 1.130423 4 3 ack 40 ------- 1 4.0 3.1 8 93
r 1.1375 2 1 ack 40 ------- 1 2.0 1.1 8 92
r 1.140426 4 3 ack 40 ------- 1 4.0 3.1 8 93
+ 1.143918 0 1 tcp 1040 ------- 1 0.0 1.0 10 94
- 1.143918 0 1 tcp 1040 ------- 1 0.0 1.0 10 94
r 1.154002 0 1 tcp 1040 ------- 1 0.0 1.0 10 94
+ 1.154002 1 0 ack 40 ------- 1 1.0 0.0 10 95
- 1.154002 1 0 ack 40 ------- 1 1.0 0.0 10 95
r 1.164005 1 0 ack 40 ------- 1 1.0 0.0 10 95
+ 1.177884 2 3 tcp 1040 ------- 1 2.1 3.0 12 96
- 1.177884 2 3 tcp 1040 ------- 1 2.1 3.0 12 96
r 1.187967 2 3 tcp 1040 ------- 1 2.1 3.0 12 96
+ 1.187967 3 2 ack 40 ------- 1 3.0 2.1 12 97
- 1.187967 3 2 ack 40 ------- 1 3.0 2.1 12 97
r 1.19797 3 2 ack 40 ------- 1 3.0 2.1 12 97
+ 1.198872 4 0 tcp 1040 ---A--- 1 4.1 0.1 7 98
- 1.198872 4 0 tcp 1040 ---A--- 1 4.1 0.1 7 98
r 1.208955 4 0 tcp 1040 ---A--- 1 4.1 0.1 7 98
+ 1.208955 0 4 ack 40 ------- 1 0.1 4.1 7 99
- 1.208955 0 4 ack 40 ------- 1 0.1 4.1 7 99
r 1.218958 0 4 ack 40 ------- 1 0.1 4.1 7 99
