+ 0.217874 1 2 tcp 40 ------- 1 1.1 2.0 0 0
- 0.217874 1 2 tcp 40 ------- 1 1.1 2.0 0 0
r 0.227906 1 2 tcp 40 ------- 1 1.1 2.0 0 0
+ 0.227906 2 1 ack 40 ------- 1 2.0 1.1 0 1
- 0.227906 2 1 ack 40 ------- 1 2.0 1.1 0 1
r 0.237938 2 1 ack 40 ------- 1 2.0 1.1 0 1
+ 0.237938 1 2 tcp 1040 ------- 1 1.1 2.0 1 2
- 0.237938 1 2 tcp 1040 ------- 1 1.1 2.0 1 2
+ 0.244618 4 0 tcp 40 ------- 1 4.1 0.1 0 3
- 0.244618 4 0 tcp 40 ------- 1 4.1 0.1 0 3
r 0.24877 1 2 tcp 1040 ------- 1 1.1 2.0 1 2
+ 0.24877 2 1 ack 40 ------- 1 2.0 1.1 1 4
- 0.24877 2 1 ack 40 ------- 1 2.0 1.1 1 4
r 0.25465 4 0 tcp 40 ------- 1 4.1 0.1 0 3
+ 0.25465 0 4 ack 40 ------- 1 0.1 4.1 0 5
- 0.25465 0 4 ack 40 ------- 1 0.1 4.1 0 5
r 0.258802 2 1 ack 40 ------- 1 2.0 1.1 1 4
r 0.264682 0 4 ack 40 ------- 1 0.1 4.1 0 5
+ 0.264682 4 0 tcp 1040 ------- 1 4.1 0.1 1 6
- 0.264682 4 0 tcp 1040 ------- 1 4.1 0.1 1 6
+ 0.264682 4 0 tcp 1040 ------- 1 4.1 0.1 2 7
- 0.265514 4 0 tcp 1040 ------- 1 4.1 0.1 2 7
r 0.275514 4 0 tcp 1040 ------- 1 4.1 0.1 1 6
+ 0.275514 0 4 ack 40 ------- 1 0.1 4.1 1 8
- 0.275514 0 4 ack 40 ------- 1 0.1 4.1 1 8
r 0.276346 4 0 tcp 1040 ------- 1 4.1 0.1 2 7
+ 0.276346 0 4 ack 40 ------- 1 0.1 4.1 2 9
- 0.276346 0 4 ack 40 ------- 1 0.1 4.1 2 9
r 0.285546 0 4 ack 40 ------- 1 0.1 4.1 1 8
r 0.286378 0 4 ack 40 ------- 1 0.1 4.1 2 9
+ 0.317416 0 1 tcp 40 ------- 1 0.0 1.0 0 10
- 0.317416 0 1 tcp 40 ------- 1 0.0 1.0 0 10
r 0.327448 0 1 tcp 40 ------- 1 0.0 1.0 0 10
+ 0.327448 1 0 ack 40 ------- 1 1.0 0.0 0 11
- 0.327448 1 0 ack 40 ------- 1 1.0 0.0 0 11
r 0.33748 1 0 ack 40 ------- 1 1.0 0.0 0 11
+ 0.33748 0 1 tcp 1040 ------- 1 0.0 1.0 1 12
- 0.33748 0 1 tcp 1040 ------- 1 0.0 1.0 1 12
+ 0.345615 4 0 tcp 1040 ------- 1 4.1 0.1 3 13
- 0.345615 4 0 tcp 1040 ------- 1 4.1 0.1 3 13
r 0.348312 0 1 tcp 1040 ------- 1 0.0 1.0 1 12
+ 0.348312 1 0 ack 40 ------- 1 1.0 0.0 1 14
- 0.348312 1 0 ack 40 ------- 1 1.0 0.0 1 14
r 0.356447 4 0 tcp 1040 ------- 1 4.1 0.1 3 13
+ 0.356447 0 4 ack 40 ------- 1 0.1 4.1 3 15
- 0.356447 0 4 ack 40 ------- 1 0.1 4.1 3 15
r 0.358344 1 0 ack 40 ------- 1 1.0 0.0 1 14
r 0.366479 0 4 ack 40 ------- 1 0.1 4.1 3 15
+ 0.3807 2 3 tcp 40 ------- 1 2.1 3.0 0 16
- 0.3807 2 3 tcp 40 ------- 1 2.1 3.0 0 16
r 0.390732 2 3 tcp 40 ------- 1 2.1 3.0 0 16
+ 0.390732 3 2 ack 40 ------- 1 3.0 2.1 0 17
- 0.390732 3 2 ack 40 ------- 1 3.0 2.1 0 17
r 0.400764 3 2 ack 40 ------- 1 3.0 2.1 0 17
+ 0.400764 2 3 tcp 1040 ------- 1 2.1 3.0 1 18
- 0.400764 2 3 tcp 1040 ------- 1 2.1 3.0 1 18
+ 0.40214 2 3 tcp 1040 ------- 1 2.1 3.0 2 19
- 0.40214 2 3 tcp 1040 ------- 1 2.1 3.0 2 19
r 0.411596 2 3 tcp 1040 ------- 1 2.1 3.0 1 18
+ 0.411596 3 2 ack 40 ------- 1 3.0 2.1 1 20
- 0.411596 3 2 ack 40 ------- 1 3.0 2.1 1 20
r 0.412972 2 3 tcp 1040 ------- 1 2.1 3.0 2 19
+ 0.412972 3 2 ack 40 ------- 1 3.0 2.1 2 21
- 0.412972 3 2 ack 40 ------- 1 3.0 2.1 2 21
r 0.421628 3 2 ack 40 ------- 1 3.0 2.1 1 20
r 0.423004 3 2 ack 40 ------- 1 3.0 2.1 2 21
+ 0.435198 1 2 tcp 1040 ------- 1 1.1 2.0 2 22
- 0.435198 1 2 tcp 1040 ------- 1 1.1 2.0 2 22
r 0.44603 1 2 tcp 1040 ------- 1 1.1 2.0 2 22
+ 0.44603 2 1 ack 40 ------- 1 2.0 1.1 2 23
- 0.44603 2 1 ack 40 ------- 1 2.0 1.1 2 23
r 0.456062 2 1 ack 40 ------- 1 2.0 1.1 2 23
+ 0.491824 0 1 tcp 1040 ------- 1 0.0 1.0 2 24
- 0.491824 0 1 tcp 1040 ------- 1 0.0 1.0 2 24
r 0.502656 0 1 tcp 1040 ------- 1 0.0 1.0 2 24
+ 0.502656 1 0 ack 40 ------- 1 1.0 0.0 2 25
- 0.502656 1 0 ack 40 ------- 1 1.0 0.0 2 25
+ 0.507482 2 3 tcp 1040 ------- 1 2.1 3.0 3 26
- 0.507482 2 3 tcp 1040 ------- 1 2.1 3.0 3 26
r 0.512688 1 0 ack 40 ------- 1 1.0 0.0 2 25
+ 0.515134 3 4 tcp 40 ------- 1 3.1 4.0 0 27
- 0.515134 3 4 tcp 40 ------- 1 3.1 4.0 0 27
r 0.518314 2 3 tcp 1040 ------- 1 2.1 3.0 3 26
+ 0.518314 3 2 ack 40 ------- 1 3.0 2.1 3 28
- 0.518314 3 2 ack 40 ------- 1 3.0 2.1 3 28
r 0.525166 3 4 tcp 40 ------- 1 3.1 4.0 0 27
+ 0.525166 4 3 ack 40 ------- 1 4.0 3.1 0 29
- 0.525166 4 3 ack 40 ------- 1 4.0 3.1 0 29
r 0.528346 3 2 ack 40 ------- 1 3.0 2.1 3 28
r 0.535198 4 3 ack 40 ------- 1 4.0 3.1 0 29
+ 0.535198 3 4 tcp 1040 ------- 1 3.1 4.0 1 30
- 0.535198 3 4 tcp 1040 ------- 1 3.1 4.0 1 30
r 0.54603 3 4 tcp 1040 ------- 1 3.1 4.0 1 30
+ 0.54603 4 3 ack 40 ------- 1 4.0 3.1 1 31
- 0.54603 4 3 ack 40 ------- 1 4.0 3.1 1 31
r 0.556062 4 3 ack 40 ------- 1 4.0 3.1 1 31
+ 0.570643 1 2 tcp 1040 ------- 1 1.1 2.0 3 32
- 0.570643 1 2 tcp 1040 ------- 1 1.1 2.0 3 32
+ 0.573135 2 3 tcp 1040 ------- 1 2.1 3.0 4 33
- 0.573135 2 3 tcp 1040 ------- 1 2.1 3.0 4 33
+ 0.581305 0 1 tcp 1040 ------- 1 0.0 1.0 3 34
- 0.581305 0 1 tcp 1040 ------- 1 0.0 1.0 3 34
r 0.581475 1 2 tcp 1040 ------- 1 1.1 2.0 3 32
+ 0.581475 2 1 ack 40 ------- 1 2.0 1.1 3 35
- 0.581475 2 1 ack 40 ------- 1 2.0 1.1 3 35
+ 0.581914 4 0 tcp 1040 ---A--- 1 4.1 0.1 4 36
- 0.581914 4 0 tcp 1040 ---A--- 1 4.1 0.1 4 36
r 0.583967 2 3 tcp 1040 ------- 1 2.1 3.0 4 33
+ 0.583967 3 2 ack 40 ------- 1 3.0 2.1 4 37
- 0.583967 3 2 ack 40 ------- 1 3.0 2.1 4 37
+ 0.587977 2 3 tcp 1040 ------- 1 2.1 3.0 5 38
- 0.587977 2 3 tcp 1040 ------- 1 2.1 3.0 5 38
+ 0.591467 3 4 tcp 1040 ------- 1 3.1 4.0 2 39
- 0.591467 3 4 tcp 1040 ------- 1 3.1 4.0 2 39
r 0.591507 2 1 ack 40 ------- 1 2.0 1.1 3 35
r 0.592137 0 1 tcp 1040 ------- 1 0.0 1.0 3 34
+ 0.592137 1 0 ack 40 ------- 1 1.0 0.0 3 40
- 0.592137 1 0 ack 40 ------- 1 1.0 0.0 3 40
r 0.592746 4 0 tcp 1040 ---A--- 1 4.1 0.1 4 36
+ 0.592746 0 4 ack 40 ------- 1 0.1 4.1 4 41
- 0.592746 0 4 ack 40 ------- 1 0.1 4.1 4 41
r 0.593999 3 2 ack 40 ------- 1 3.0 2.1 4 37
+ 0.598761 0 1 tcp 1040 ------- 1 0.0 1.0 4 42
- 0.598761 0 1 tcp 1040 ------- 1 0.0 1.0 4 42
r 0.598809 2 3 tcp 1040 ------- 1 2.1 3.0 5 38
+ 0.598809 3 2 ack 40 ------- 1 3.0 2.1 5 43
- 0.598809 3 2 ack 40 ------- 1 3.0 2.1 5 43
r 0.602169 1 0 ack 40 ------- 1 1.0 0.0 3 40
r 0.602299 3 4 tcp 1040 ------- 1 3.1 4.0 2 39
+ 0.602299 4 3 ack 40 ------- 1 4.0 3.1 2 44
- 0.602299 4 3 ack 40 ------- 1 4.0 3.1 2 44
r 0.602778 0 4 ack 40 ------- 1 0.1 4.1 4 41
+ 0.607416 1 2 tcp 1040 ------- 1 1.1 2.0 4 45
- 0.607416 1 2 tcp 1040 ------- 1 1.1 2.0 4 45
+ 0.607588 3 4 tcp 1040 ------- 1 3.1 4.0 3 46
- 0.607588 3 4 tcp 1040 ------- 1 3.1 4.0 3 46
r 0.608841 3 2 ack 40 ------- 1 3.0 2.1 5 43
r 0.609593 0 1 tcp 1040 ------- 1 0.0 1.0 4 42
+ 0.609593 1 0 ack 40 ------- 1 1.0 0.0 4 47
- 0.609593 1 0 ack 40 ------- 1 1.0 0.0 4 47
r 0.612331 4 3 ack 40 ------- 1 4.0 3.1 2 44
+ 0.617576 3 4 tcp 1040 ------- 1 3.1 4.0 4 48
- 0.617576 3 4 tcp 1040 ------- 1 3.1 4.0 4 48
r 0.618248 1 2 tcp 1040 ------- 1 1.1 2.0 4 45
+ 0.618248 2 1 ack 40 ------- 1 2.0 1.1 4 49
- 0.618248 2 1 ack 40 ------- 1 2.0 1.1 4 49
r 0.61842 3 4 tcp 1040 ------- 1 3.1 4.0 3 46
+ 0.61842 4 3 ack 40 ------- 1 4.0 3.1 3 50
- 0.61842 4 3 ack 40 ------- 1 4.0 3.1 3 50
r 0.619625 1 0 ack 40 ------- 1 1.0 0.0 4 47
r 0.62828 2 1 ack 40 ------- 1 2.0 1.1 4 49
r 0.628408 3 4 tcp 1040 ------- 1 3.1 4.0 4 48
+ 0.628408 4 3 ack 40 ------- 1 4.0 3.1 4 51
- 0.628408 4 3 ack 40 ------- 1 4.0 3.1 4 51
r 0.628452 4 3 ack 40 ------- 1 4.0 3.1 3 50
+ 0.634567 1 2 tcp 1040 ------- 1 1.1 2.0 5 52
- 0.634567 1 2 tcp 1040 ------- 1 1.1 2.0 5 52
+ 0.637718 0 1 tcp 1040 ------- 1 0.0 1.0 5 53
- 0.637718 0 1 tcp 1040 ------- 1 0.0 1.0 5 53
r 0.63844 4 3 ack 40 ------- 1 4.0 3.1 4 51
r 0.645399 1 2 tcp 1040 ------- 1 1.1 2.0 5 52
+ 0.645399 2 1 ack 40 ------- 1 2.0 1.1 5 54
- 0.645399 2 1 ack 40 ------- 1 2.0 1.1 5 54
r 0.64855 0 1 tcp 1040 ------- 1 0.0 1.0 5 53
+ 0.64855 1 0 ack 40 ------- 1 1.0 0.0 5 55
- 0.64855 1 0 ack 40 ------- 1 1.0 0.0 5 55
r 0.655431 2 1 ack 40 ------- 1 2.0 1.1 5 54
r 0.658582 1 0 ack 40 ------- 1 1.0 0.0 5 55
+ 0.707835 3 4 tcp 1040 ------- 1 3.1 4.0 5 56
- 0.707835 3 4 tcp 1040 ------- 1 3.1 4.0 5 56
r 0.718667 3 4 tcp 1040 ------- 1 3.1 4.0 5 56
+ 0.718667 4 3 ack 40 ------- 1 4.0 3.1 5 57
- 0.718667 4 3 ack 40 ------- 1 4.0 3.1 5 57
+ 0.728301 0 1 tcp 1040 ------- 1 0.0 1.0 6 58
- 0.728301 0 1 tcp 1040 ------- 1 0.0 1.0 6 58
r 0.728699 4 3 ack 40 ------- 1 4.0 3.1 5 57
+ 0.73018 2 3 tcp 1040 ------- 1 2.1 3.0 6 59
- 0.73018 2 3 tcp 1040 ------- 1 2.1 3.0 6 59
+ 0.734626 4 0 tcp 1040 ------- 1 4.1 0.1 5 60
- 0.734626 4 0 tcp 1040 ------- 1 4.1 0.1 5 60
+ 0.735703 2 3 tcp 1040 ------- 1 2.1 3.0 7 61
- 0.735703 2 3 tcp 1040 ------- 1 2.1 3.0 7 61
r 0.739133 0 1 tcp 1040 ------- 1 0.0 1.0 6 58
+ 0.739133 1 0 ack 40 ------- 1 1.0 0.0 6 62
- 0.739133 1 0 ack 40 ------- 1 1.0 0.0 6 62
+ 0.740242 0 1 tcp 1040 ------- 1 0.0 1.0 7 63
- 0.740242 0 1 tcp 1040 ------- 1 0.0 1.0 7 63
r 0.741012 2 3 tcp 1040 ------- 1 2.1 3.0 6 59
+ 0.741012 3 2 ack 40 ------- 1 3.0 2.1 6 64
- 0.741012 3 2 ack 40 ------- 1 3.0 2.1 6 64
r 0.745458 4 0 tcp 1040 ------- 1 4.1 0.1 5 60
+ 0.745458 0 4 ack 40 ------- 1 0.1 4.1 5 65
- 0.745458 0 4 ack 40 ------- 1 0.1 4.1 5 65
+ 0.746128 4 0 tcp 1040 ------- 1 4.1 0.1 6 66
- 0.746128 4 0 tcp 1040 ------- 1 4.1 0.1 6 66
r 0.746535 2 3 tcp 1040 ------- 1 2.1 3.0 7 61
+ 0.746535 3 2 ack 40 ------- 1 3.0 2.1 7 67
- 0.746535 3 2 ack 40 ------- 1 3.0 2.1 7 67
r 0.749165 1 0 ack 40 ------- 1 1.0 0.0 6 62
r 0.751044 3 2 ack 40 ------- 1 3.0 2.1 6 64
r 0.751074 0 1 tcp 1040 ------- 1 0.0 1.0 7 63
+ 0.751074 1 0 ack 40 ------- 1 1.0 0.0 7 68
- 0.751074 1 0 ack 40 ------- 1 1.0 0.0 7 68
r 0.75549 0 4 ack 40 ------- 1 0.1 4.1 5 65
r 0.756567 3 2 ack 40 ------- 1 3.0 2.1 7 67
r 0.75696 4 0 tcp 1040 ------- 1 4.1 0.1 6 66
+ 0.75696 0 4 ack 40 ------- 1 0.1 4.1 6 69
- 0.75696 0 4 ack 40 ------- 1 0.1 4.1 6 69
r 0.761106 1 0 ack 40 ------- 1 1.0 0.0 7 68
r 0.766992 0 4 ack 40 ------- 1 0.1 4.1 6 69
+ 0.856025 1 2 tcp 1040 ---A--- 1 1.1 2.0 6 70
- 0.856025 1 2 tcp 1040 ---A--- 1 1.1 2.0 6 70
r 0.866857 1 2 tcp 1040 ---A--- 1 1.1 2.0 6 70
+ 0.866857 2 1 ack 40 ------- 1 2.0 1.1 6 71
- 0.866857 2 1 ack 40 ------- 1 2.0 1.1 6 71
+ 0.875305 3 4 tcp 1040 ------- 1 3.1 4.0 6 72
- 0.875305 3 4 tcp 1040 ------- 1 3.1 4.0 6 72
r 0.876889 2 1 ack 40 ------- 1 2.0 1.1 6 71
r 0.886137 3 4 tcp 1040 ------- 1 3.1 4.0 6 72
+ 0.886137 4 3 ack 40 ------- 1 4.0 3.1 6 73
- 0.886137 4 3 ack 40 ------- 1 4.0 3.1 6 73
r 0.896169 4 3 ack 40 ------- 1 4.0 3.1 6 73
+ 0.90794 1 2 tcp 1040 ------- 1 1.1 2.0 7 74
- 0.90794 1 2 tcp 1040 ------- 1 1.1 2.0 7 74
r 0.918772 1 2 tcp 1040 ------- 1 1.1 2.0 7 74
+ 0.918772 2 1 ack 40 ------- 1 2.0 1.1 7 75
- 0.918772 2 1 ack 40 ------- 1 2.0 1.1 7 75
r 0.928804 2 1 ack 40 ------- 1 2.0 1.1 7 75
+ 0.954601 2 3 tcp 1040 ------- 1 2.1 3.0 8 76
- 0.954601 2 3 tcp 1040 ------- 1 2.1 3.0 8 76
r 0.965433 2 3 tcp 1040 ------- 1 2.1 3.0 8 76
+ 0.965433 3 2 ack 40 ------- 1 3.0 2.1 8 77
- 0.965433 3 2 ack 40 ------- 1 3.0 2.1 8 77
r 0.975465 3 2 ack 40 ------- 1 3.0 2.1 8 77
+ 0.984469 3 4 tcp 1040 ------- 1 3.1 4.0 7 78
- 0.984469 3 4 tcp 1040 ------- 1 3.1 4.0 7 78
+ 0.994854 2 3 tcp 1040 ------- 1 2.1 3.0 9 79
- 0.994854 2 3 tcp 1040 ------- 1 2.1 3.0 9 79
r 0.995301 3 4 tcp 1040 ------- 1 3.1 4.0 7 78
+ 0.995301 4 3 ack 40 ------- 1 4.0 3.1 7 80
- 0.995301 4 3 ack 40 ------- 1 4.0 3.1 7 80
r 1.005333 4 3 ack 40 ------- 1 4.0 3.1 7 80
r 1.005686 2 3 tcp 1040 ------- 1 2.1 3.0 9 79
+ 1.005686 3 2 ack 40 ------- 1 3.0 2.1 9 81
- 1.005686 3 2 ack 40 ------- 1 3.0 2.1 9 81
r 1.015718 3 2 ack 40 ------- 1 3.0 2.1 9 81
+ 1.024281 0 1 tcp 1040 ---A--- 1 0.0 1.0 8 82
- 1.024281 0 1 tcp 1040 ---A--- 1 0.0 1.0 8 82
+ 1.030711 2 3 tcp 1040 ------- 1 2.1 3.0 10 83
- 1.030711 2 3 tcp 1040 ------- 1 2.1 3.0 10 83
r 1.035113 0 1 tcp 1040 ---A--- 1 0.0 1.0 8 82
+ 1.035113 1 0 ack 40 ------- 1 1.0 0.0 8 84
- 1.035113 1 0 ack 40 ------- 1 1.0 0.0 8 84
r 1.041543 2 3 tcp 1040 ------- 1 2.1 3.0 10 83
+ 1.041543 3 2 ack 40 ------- 1 3.0 2.1 10 85
- 1.041543 3 2 ack 40 ------- 1 3.0 2.1 10 85
+ 1.043875 2 3 tcp 1040 ------- 1 2.1 3.0 11 86
- 1.043875 2 3 tcp 1040 ------- 1 2.1 3.0 11 86
r 1.045145 1 0 ack 40 ------- 1 1.0 0.0 8 84
r 1.051575 3 2 ack 40 ------- 1 3.0 2.1 10 85
r 1.054707 2 3 tcp 1040 ------- 1 2.1 3.0 11 86
+ 1.054707 3 2 ack 40 ------- 1 3.0 2.1 11 87
- 1.054707 3 2 ack 40 ------- 1 3.0 2.1 11 87
r 1.064739 3 2 ack 40 ------- 1 3.0 2.1 11 87
+ 1.085011 0 1 tcp 1040 ------- 1 0.0 1.0 9 88
- 1.085011 0 1 tcp 1040 ------- 1 0.0 1.0 9 88
r 1.095843 0 1 tcp 1040 ------- 1 0.0 1.0 9 88
+ 1.095843 1 0 ack 40 ------- 1 1.0 0.0 9 89
- 1.095843 1 0 ack 40 ------- 1 1.0 0.0 9 89
r 1.105875 1 0 ack 40 ------- 1 1.0 0.0 9 89
+ 1.117413 1 2 tcp 1040 ------- 1 1.1 2.0 8 90
- 1.117413 1 2 tcp 1040 ------- 1 1.1 2.0 8 90
+ 1.12034 3 4 tcp 1040 ------- 1 3.1 4.0 8 91
- 1.12034 3 4 tcp 1040 ------- 1 3.1 4.0 8 91
r 1.128245 1 2 tcp 1040 ------- 1 1.1 2.0 8 90
+ 1.128245 2 1 ack 40 ------- 1 2.0 1.1 8 92
- 1.128245 2 1 ack 40 ------- 1 2.0 1.1 8 92
r 1.131172 3 4 tcp 1040 ------- 1 3.1 4.0 8 91
+ 1.131172 4 3 ack 40 ------- 1 4.0 3.1 8 93
- 1.131172 4 3 ack 40 ------- 1 4.0 3.1 8 93
r 1.138277 2 1 ack 40 ------- 1 2.0 1.1 8 92
r 1.141204 4 3 ack 40 ------- 1 4.0 3.1 8 93
+ 1.143918 0 1 tcp 1040 ------- 1 0.0 1.0 10 94
- 1.143918 0 1 tcp 1040 ------- 1 0.0 1.0 10 94
r 1.15475 0 1 tcp 1040 ------- 1 0.0 1.0 10 94
+ 1.15475 1 0 ack 40 ------- 1 1.0 0.0 10 95
- 1.15475 1 0 ack 40 ------- 1 1.0 0.0 10 95
r 1.164782 1 0 ack 40 ------- 1 1.0 0.0 10 95
+ 1.177884 2 3 tcp 1040 ------- 1 2.1 3.0 12 96
- 1.177884 2 3 tcp 1040 ------- 1 2.1 3.0 12 96
r 1.188716 2 3 tcp 1040 ------- 1 2.1 3.0 12 96
+ 1.188716 3 2 ack 40 ------- 1 3.0 2.1 12 97
- 1.188716 3 2 ack 40 ------- 1 3.0 2.1 12 97
r 1.198748 3 2 ack 40 ------- 1 3.0 2.1 12 97
+ 1.198872 4 0 tcp 1040 ---A--- 1 4.1 0.1 7 98
- 1.198872 4 0 tcp 1040 ---A--- 1 4.1 0.1 7 98
r 1.209704 4 0 tcp 1040 ---A--- 1 4.1 0.1 7 98
+ 1.209704 0 4 ack 40 ------- 1 0.1 4.1 7 99
- 1.209704 0 4 ack 40 ------- 1 0.1 4.1 7 99
r 1.219736 0 4 ack 40 ------- 1 0.1 4.1 7 99
