+ 0.217874 1 2 tcp 40 ------- 1 1.1 2.0 0 0
- 0.217874 1 2 tcp 40 ------- 1 1.1 2.0 0 0
r 0.227876 1 2 tcp 40 ------- 1 1.1 2.0 0 0
+ 0.227876 2 1 ack 40 ------- 1 2.0 1.1 0 1
- 0.227876 2 1 ack 40 ------- 1 2.0 1.1 0 1
r 0.237877 2 1 ack 40 ------- 1 2.0 1.1 0 1
+ 0.237877 1 2 tcp 1040 ------- 1 1.1 2.0 1 2
- 0.237877 1 2 tcp 1040 ------- 1 1.1 2.0 1 2
+ 0.244618 4 0 tcp 40 ------- 1 4.1 0.1 0 3
- 0.244618 4 0 tcp 40 ------- 1 4.1 0.1 0 3
r 0.247919 1 2 tcp 1040 ------- 1 1.1 2.0 1 2
+ 0.247919 2 1 ack 40 ------- 1 2.0 1.1 1 4
- 0.247919 2 1 ack 40 ------- 1 2.0 1.1 1 4
r 0.25462 4 0 tcp 40 ------- 1 4.1 0.1 0 3
+ 0.25462 0 4 ack 40 ------- 1 0.1 4.1 0 5
- 0.25462 0 4 ack 40 ------- 1 0.1 4.1 0 5
r 0.25792 2 1 ack 40 ------- 1 2.0 1.1 1 4
r 0.264621 0 4 ack 40 ------- 1 0.1 4.1 0 5
+ 0.264621 4 0 tcp 1040 ------- 1 4.1 0.1 1 6
- 0.264621 4 0 tcp 1040 ------- 1 4.1 0.1 1 6
+ 0.264621 4 0 tcp 1040 ------- 1 4.1 0.1 2 7
- 0.264663 4 0 tcp 1040 ------- 1 4.1 0.1 2 7
r 0.274663 4 0 tcp 1040 ------- 1 4.1 0.1 1 6
+ 0.274663 0 4 ack 40 ------- 1 0.1 4.1 1 8
- 0.274663 0 4 ack 40 ------- 1 0.1 4.1 1 8
r 0.274705 4 0 tcp 1040 ------- 1 4.1 0.1 2 7
+ 0.274705 0 4 ack 40 ------- 1 0.1 4.1 2 9
- 0.274705 0 4 ack 40 ------- 1 0.1 4.1 2 9
r 0.284665 0 4 ack 40 ------- 1 0.1 4.1 1 8
r 0.284706 0 4 ack 40 ------- 1 0.1 4.1 2 9
+ 0.317416 0 1 tcp 40 ------- 1 0.0 1.0 0 10
- 0.317416 0 1 tcp 40 ------- 1 0.0 1.0 0 10
r 0.327417 0 1 tcp 40 ------- 1 0.0 1.0 0 10
+ 0.327417 1 0 ack 40 ------- 1 1.0 0.0 0 11
- 0.327417 1 0 ack 40 ------- 1 1.0 0.0 0 11
r 0.337419 1 0 ack 40 ------- 1 1.0 0.0 0 11
+ 0.337419 0 1 tcp 1040 ------- 1 0.0 1.0 1 12
- 0.337419 0 1 tcp 1040 ------- 1 0.0 1.0 1 12
+ 0.345615 4 0 tcp 1040 ------- 1 4.1 0.1 3 13
- 0.345615 4 0 tcp 1040 ------- 1 4.1 0.1 3 13
r 0.347461 0 1 tcp 1040 ------- 1 0.0 1.0 1 12
+ 0.347461 1 0 ack 40 ------- 1 1.0 0.0 1 14
- 0.347461 1 0 ack 40 ------- 1 1.0 0.0 1 14
r 0.355657 4 0 tcp 1040 ------- 1 4.1 0.1 3 13
+ 0.355657 0 4 ack 40 ------- 1 0.1 4.1 3 15
- 0.355657 0 4 ack 40 ------- 1 0.1 4.1 3 15
r 0.357462 1 0 ack 40 ------- 1 1.0 0.0 1 14
r 0.365658 0 4 ack 40 ------- 1 0.1 4.1 3 15
+ 0.3807 2 3 tcp 40 ------- 1 2.1 3.0 0 16
- 0.3807 2 3 tcp 40 ------- 1 2.1 3.0 0 16
r 0.390702 2 3 tcp 40 ------- 1 2.1 3.0 0 16
+ 0.390702 3 2 ack 40 ------- 1 3.0 2.1 0 17
- 0.390702 3 2 ack 40 ------- 1 3.0 2.1 0 17
r 0.400703 3 2 ack 40 ------- 1 3.0 2.1 0 17
+ 0.400703 2 3 tcp 1040 ------- 1 2.1 3.0 1 18
- 0.400703 2 3 tcp 1040 ------- 1 2.1 3.0 1 18
+ 0.40214 2 3 tcp 1040 ------- 1 2.1 3.0 2 19
- 0.40214 2 3 tcp 1040 ------- 1 2.1 3.0 2 19
r 0.410745 2 3 tcp 1040 ------- 1 2.1 3.0 1 18
+ 0.410745 3 2 ack 40 ------- 1 3.0 2.1 1 20
- 0.410745 3 2 ack 40 ------- 1 3.0 2.1 1 20
r 0.412181 2 3 tcp 1040 ------- 1 2.1 3.0 2 19
+ 0.412181 3 2 ack 40 ------- 1 3.0 2.1 2 21
- 0.412181 3 2 ack 40 ------- 1 3.0 2.1 2 21
r 0.420747 3 2 ack 40 ------- 1 3.0 2.1 1 20
r 0.422183 3 2 ack 40 ------- 1 3.0 2.1 2 21
+ 0.435198 1 2 tcp 1040 ------- 1 1.1 2.0 2 22
- 0.435198 1 2 tcp 1040 ------- 1 1.1 2.0 2 22
r 0.44524 1 2 tcp 1040 ------- 1 1.1 2.0 2 22
+ 0.44524 2 1 ack 40 ------- 1 2.0 1.1 2 23
- 0.44524 2 1 ack 40 ------- 1 2.0 1.1 2 23
r 0.455241 2 1 ack 40 ------- 1 2.0 1.1 2 23
+ 0.491824 0 1 tcp 1040 ------- 1 0.0 1.0 2 24
- 0.491824 0 1 tcp 1040 ------- 1 0.0 1.0 2 24
r 0.501866 0 1 tcp 1040 ------- 1 0.0 1.0 2 24
+ 0.501866 1 0 ack 40 ------- 1 1.0 0.0 2 25
- 0.501866 1 0 ack 40 ------- 1 1.0 0.0 2 25
+ 0.507482 2 3 tcp 1040 ------- 1 2.1 3.0 3 26
- 0.507482 2 3 tcp 1040 ------- 1 2.1 3.0 3 26
r 0.511867 1 0 ack 40 ------- 1 1.0 0.0 2 25
+ 0.515134 3 4 tcp 40 ------- 1 3.1 4.0 0 27
- 0.515134 3 4 tcp 40 ------- 1 3.1 4.0 0 27
r 0.517524 2 3 tcp 1040 ------- 1 2.1 3.0 3 26
+ 0.517524 3 2 ack 40 ------- 1 3.0 2.1 3 28
- 0.517524 3 2 ack 40 ------- 1 3.0 2.1 3 28
r 0.525136 3 4 tcp 40 ------- 1 3.1 4.0 0 27
+ 0.525136 4 3 ack 40 ------- 1 4.0 3.1 0 29
- 0.525136 4 3 ack 40 ------- 1 4.0 3.1 0 29
r 0.527526 3 2 ack 40 ------- 1 3.0 2.1 3 28
r 0.535138 4 3 ack 40 ------- 1 4.0 3.1 0 29
+ 0.535138 3 4 tcp 1040 ------- 1 3.1 4.0 1 30
- 0.535138 3 4 tcp 1040 ------- 1 3.1 4.0 1 30
r 0.545179 3 4 tcp 1040 ------- 1 3.1 4.0 1 30
+ 0.545179 4 3 ack 40 ------- 1 4.0 3.1 1 31
- 0.545179 4 3 ack 40 ------- 1 4.0 3.1 1 31
r 0.555181 4 3 ack 40 ------- 1 4.0 3.1 1 31
+ 0.570643 1 2 tcp 1040 ------- 1 1.1 2.0 3 32
- 0.570643 1 2 tcp 1040 ------- 1 1.1 2.0 3 32
+ 0.573135 2 3 tcp 1040 ------- 1 2.1 3.0 4 33
- 0.573135 2 3 tcp 1040 ------- 1 2.1 3.0 4 33
r 0.580685 1 2 tcp 1040 ------- 1 1.1 2.0 3 32
+ 0.580685 2 1 ack 40 ------- 1 2.0 1.1 3 34
- 0.580685 2 1 ack 40 ------- 1 2.0 1.1 3 34
+ 0.581305 0 1 tcp 1040 ------- 1 0.0 1.0 3 35
- 0.581305 0 1 tcp 1040 ------- 1 0.0 1.0 3 35
+ 0.581914 4 0 tcp 1040 ---A--- 1 4.1 0.1 4 36
- 0.581914 4 0 tcp 1040 ---A--- 1 4.1 0.1 4 36
r 0.583177 2 3 tcp 1040 ------- 1 2.1 3.0 4 33
+ 0.583177 3 2 ack 40 ------- 1 3.0 2.1 4 37
- 0.583177 3 2 ack 40 ------- 1 3.0 2.1 4 37
+ 0.587977 2 3 tcp 1040 ------- 1 2.1 3.0 5 38
- 0.587977 2 3 tcp 1040 ------- 1 2.1 3.0 5 38
r 0.590687 2 1 ack 40 ------- 1 2.0 1.1 3 34
r 0.591347 0 1 tcp 1040 ------- 1 0.0 1.0 3 35
+ 0.591347 1 0 ack 40 ------- 1 1.0 0.0 3 39
- 0.591347 1 0 ack 40 ------- 1 1.0 0.0 3 39
+ 0.591467 3 4 tcp 1040 ------- 1 3.1 4.0 2 40
- 0.591467 3 4 tcp 1040 ------- 1 3.1 4.0 2 40
r 0.591955 4 0 tcp 1040 ---A--- 1 4.1 0.1 4 36
+ 0.591955 0 4 ack 40 ------- 1 0.1 4.1 4 41
- 0.591955 0 4 ack 40 ------- 1 0.1 4.1 4 41
r 0.593178 3 2 ack 40 ------- 1 3.0 2.1 4 37
r 0.598019 2 3 tcp 1040 ------- 1 2.1 3.0 5 38
+ 0.598019 3 2 ack 40 ------- 1 3.0 2.1 5 42
- 0.598019 3 2 ack 40 ------- 1 3.0 2.1 5 42
+ 0.598761 0 1 tcp 1040 ------- 1 0.0 1.0 4 43
- 0.598761 0 1 tcp 1040 ------- 1 0.0 1.0 4 43
r 0.601348 1 0 ack 40 ------- 1 1.0 0.0 3 39
r 0.601508 3 4 tcp 1040 ------- 1 3.1 4.0 2 40
+ 0.601508 4 3 ack 40 ------- 1 4.0 3.1 2 44
- 0.601508 4 3 ack 40 ------- 1 4.0 3.1 2 44
r 0.601957 0 4 ack 40 ------- 1 0.1 4.1 4 41
+ 0.607416 1 2 tcp 1040 ------- 1 1.1 2.0 4 45
- 0.607416 1 2 tcp 1040 ------- 1 1.1 2.0 4 45
+ 0.607588 3 4 tcp 1040 ------- 1 3.1 4.0 3 46
- 0.607588 3 4 tcp 1040 ------- 1 3.1 4.0 3 46
r 0.608021 3 2 ack 40 ------- 1 3.0 2.1 5 42
r 0.608803 0 1 tcp 1040 ------- 1 0.0 1.0 4 43
+ 0.608803 1 0 ack 40 ------- 1 1.0 0.0 4 47
- 0.608803 1 0 ack 40 ------- 1 1.0 0.0 4 47
r 0.61151 4 3 ack 40 ------- 1 4.0 3.1 2 44
r 0.617458 1 2 tcp 1040 ------- 1 1.1 2.0 4 45
+ 0.617458 2 1 ack 40 ------- 1 2.0 1.1 4 48
- 0.617458 2 1 ack 40 ------- 1 2.0 1.1 4 48
+ 0.617576 3 4 tcp 1040 ------- 1 3.1 4.0 4 49
- 0.617576 3 4 tcp 1040 ------- 1 3.1 4.0 4 49
r 0.61763 3 4 tcp 1040 ------- 1 3.1 4.0 3 46
+ 0.61763 4 3 ack 40 ------- 1 4.0 3.1 3 50
- 0.61763 4 3 ack 40 ------- 1 4.0 3.1 3 50
r 0.618804 1 0 ack 40 ------- 1 1.0 0.0 4 47
r 0.627459 2 1 ack 40 ------- 1 2.0 1.1 4 48
r 0.627618 3 4 tcp 1040 ------- 1 3.1 4.0 4 49
+ 0.627618 4 3 ack 40 ------- 1 4.0 3.1 4 51
- 0.627618 4 3 ack 40 ------- 1 4.0 3.1 4 51
r 0.627632 4 3 ack 40 ------- 1 4.0 3.1 3 50
+ 0.634567 1 2 tcp 1040 ------- 1 1.1 2.0 5 52
- 0.634567 1 2 tcp 1040 ------- 1 1.1 2.0 5 52
r 0.63762 4 3 ack 40 ------- 1 4.0 3.1 4 51
+ 0.637718 0 1 tcp 1040 ------- 1 0.0 1.0 5 53
- 0.637718 0 1 tcp 1040 ------- 1 0.0 1.0 5 53
r 0.644608 1 2 tcp 1040 ------- 1 1.1 2.0 5 52
+ 0.644608 2 1 ack 40 ------- 1 2.0 1.1 5 54
- 0.644608 2 1 ack 40 ------- 1 2.0 1.1 5 54
r 0.64776 0 1 tcp 1040 ------- 1 0.0 1.0 5 53
+ 0.64776 1 0 ack 40 ------- 1 1.0 0.0 5 55
- 0.64776 1 0 ack 40 ------- 1 1.0 0.0 5 55
r 0.65461 2 1 ack 40 ------- 1 2.0 1.1 5 54
r 0.657761 1 0 ack 40 ------- 1 1.0 0.0 5 55
+ 0.707835 3 4 tcp 1040 ------- 1 3.1 4.0 5 56
- 0.707835 3 4 tcp 1040 ------- 1 3.1 4.0 5 56
r 0.717877 3 4 tcp 1040 ------- 1 3.1 4.0 5 56
+ 0.717877 4 3 ack 40 ------- 1 4.0 3.1 5 57
- 0.717877 4 3 ack 40 ------- 1 4.0 3.1 5 57
r 0.727878 4 3 ack 40 ------- 1 4.0 3.1 5 57
+ 0.728301 0 1 tcp 1040 ------- 1 0.0 1.0 6 58
- 0.728301 0 1 tcp 1040 ------- 1 0.0 1.0 6 58
+ 0.73018 2 3 tcp 1040 ------- 1 2.1 3.0 6 59
- 0.73018 2 3 tcp 1040 ------- 1 2.1 3.0 6 59
+ 0.734626 4 0 tcp 1040 ------- 1 4.1 0.1 5 60
- 0.734626 4 0 tcp 1040 ------- 1 4.1 0.1 5 60
+ 0.735703 2 3 tcp 1040 ------- 1 2.1 3.0 7 61
- 0.735703 2 3 tcp 1040 ------- 1 2.1 3.0 7 61
r 0.738342 0 1 tcp 1040 ------- 1 0.0 1.0 6 58
+ 0.738342 1 0 ack 40 ------- 1 1.0 0.0 6 62
- 0.738342 1 0 ack 40 ------- 1 1.0 0.0 6 62
r 0.740221 2 3 tcp 1040 ------- 1 2.1 3.0 6 59
+ 0.740221 3 2 ack 40 ------- 1 3.0 2.1 6 63
- 0.740221 3 2 ack 40 ------- 1 3.0 2.1 6 63
+ 0.740242 0 1 tcp 1040 ------- 1 0.0 1.0 7 64
- 0.740242 0 1 tcp 1040 ------- 1 0.0 1.0 7 64
r 0.744668 4 0 tcp 1040 ------- 1 4.1 0.1 5 60
+ 0.744668 0 4 ack 40 ------- 1 0.1 4.1 5 65
- 0.744668 0 4 ack 40 ------- 1 0.1 4.1 5 65
r 0.745745 2 3 tcp 1040 ------- 1 2.1 3.0 7 61
+ 0.745745 3 2 ack 40 ------- 1 3.0 2.1 7 66
- 0.745745 3 2 ack 40 ------- 1 3.0 2.1 7 66
+ 0.746128 4 0 tcp 1040 ------- 1 4.1 0.1 6 67
- 0.746128 4 0 tcp 1040 ------- 1 4.1 0.1 6 67
r 0.748344 1 0 ack 40 ------- 1 1.0 0.0 6 62
r 0.750223 3 2 ack 40 ------- 1 3.0 2.1 6 63
r 0.750283 0 1 tcp 1040 ------- 1 0.0 1.0 7 64
+ 0.750283 1 0 ack 40 ------- 1 1.0 0.0 7 68
- 0.750283 1 0 ack 40 ------- 1 1.0 0.0 7 68
r 0.754669 0 4 ack 40 ------- 1 0.1 4.1 5 65
r 0.755746 3 2 ack 40 ------- 1 3.0 2.1 7 66
r 0.75617 4 0 tcp 1040 ------- 1 4.1 0.1 6 67
+ 0.75617 0 4 ack 40 ------- 1 0.1 4.1 6 69
- 0.75617 0 4 ack 40 ------- 1 0.1 4.1 6 69
r 0.760285 1 0 ack 40 ------- 1 1.0 0.0 7 68
r 0.766171 0 4 ack 40 ------- 1 0.1 4.1 6 69
+ 0.856025 1 2 tcp 1040 ---A--- 1 1.1 2.0 6 70
- 0.856025 1 2 tcp 1040 ---A--- 1 1.1 2.0 6 70
r 0.866067 1 2 tcp 1040 ---A--- 1 1.1 2.0 6 70
+ 0.866067 2 1 ack 40 ------- 1 2.0 1.1 6 71
- 0.866067 2 1 ack 40 ------- 1 2.0 1.1 6 71
+ 0.875305 3 4 tcp 1040 ------- 1 3.1 4.0 6 72
- 0.875305 3 4 tcp 1040 ------- 1 3.1 4.0 6 72
r 0.876069 2 1 ack 40 ------- 1 2.0 1.1 6 71
r 0.885346 3 4 tcp 1040 ------- 1 3.1 4.0 6 72
+ 0.885346 4 3 ack 40 ------- 1 4.0 3.1 6 73
- 0.885346 4 3 ack 40 ------- 1 4.0 3.1 6 73
r 0.895348 4 3 ack 40 ------- 1 4.0 3.1 6 73
+ 0.90794 1 2 tcp 1040 ------- 1 1.1 2.0 7 74
- 0.90794 1 2 tcp 1040 ------- 1 1.1 2.0 7 74
r 0.917982 1 2 tcp 1040 ------- 1 1.1 2.0 7 74
+ 0.917982 2 1 ack 40 ------- 1 2.0 1.1 7 75
- 0.917982 2 1 ack 40 ------- 1 2.0 1.1 7 75
r 0.927983 2 1 ack 40 ------- 1 2.0 1.1 7 75
+ 0.954601 2 3 tcp 1040 ------- 1 2.1 3.0 8 76
- 0.954601 2 3 tcp 1040 ------- 1 2.1 3.0 8 76
r 0.964642 2 3 tcp 1040 ------- 1 2.1 3.0 8 76
+ 0.964642 3 2 ack 40 ------- 1 3.0 2.1 8 77
- 0.964642 3 2 ack 40 ------- 1 3.0 2.1 8 77
r 0.974644 3 2 ack 40 ------- 1 3.0 2.1 8 77
+ 0.984469 3 4 tcp 1040 ------- 1 3.1 4.0 7 78
- 0.984469 3 4 tcp 1040 ------- 1 3.1 4.0 7 78
r 0.994511 3 4 tcp 1040 ------- 1 3.1 4.0 7 78
+ 0.994511 4 3 ack 40 ------- 1 4.0 3.1 7 79
- 0.994511 4 3 ack 40 ------- 1 4.0 3.1 7 79
+ 0.994854 2 3 tcp 1040 ------- 1 2.1 3.0 9 80
- 0.994854 2 3 tcp 1040 ------- 1 2.1 3.0 9 80
r 1.004513 4 3 ack 40 ------- 1 4.0 3.1 7 79
r 1.004896 2 3 tcp 1040 ------- 1 2.1 3.0 9 80
+ 1.004896 3 2 ack 40 ------- 1 3.0 2.1 9 81
- 1.004896 3 2 ack 40 ------- 1 3.0 2.1 9 81
r 1.014897 3 2 ack 40 ------- 1 3.0 2.1 9 81
+ 1.024281 0 1 tcp 1040 ---A--- 1 0.0 1.0 8 82
- 1.024281 0 1 tcp 1040 ---A--- 1 0.0 1.0 8 82
+ 1.030711 2 3 tcp 1040 ------- 1 2.1 3.0 10 83
- 1.030711 2 3 tcp 1040 ------- 1 2.1 3.0 10 83
r 1.034323 0 1 tcp 1040 ---A--- 1 0.0 1.0 8 82
+ 1.034323 1 0 ack 40 ------- 1 1.0 0.0 8 84
- 1.034323 1 0 ack 40 ------- 1 1.0 0.0 8 84
r 1.040753 2 3 tcp 1040 ------- 1 2.1 3.0 10 83
+ 1.040753 3 2 ack 40 ------- 1 3.0 2.1 10 85
- 1.040753 3 2 ack 40 ------- 1 3.0 2.1 10 85
+ 1.043875 2 3 tcp 1040 ------- 1 2.1 3.0 11 86
- 1.043875 2 3 tcp 1040 ------- 1 2.1 3.0 11 86
r 1.044324 1 0 ack 40 ------- 1 1.0 0.0 8 84
r 1.050754 3 2 ack 40 ------- 1 3.0 2.1 10 85
r 1.053917 2 3 tcp 1040 ------- 1 2.1 3.0 11 86
+ 1.053917 3 2 ack 40 ------- 1 3.0 2.1 11 87
- 1.053917 3 2 ack 40 ------- 1 3.0 2.1 11 87
r 1.063919 3 2 ack 40 ------- 1 3.0 2.1 11 87
+ 1.085011 0 1 tcp 1040 ------- 1 0.0 1.0 9 88
- 1.085011 0 1 tcp 1040 ------- 1 0.0 1.0 9 88
r 1.095052 0 1 tcp 1040 ------- 1 0.0 1.0 9 88
+ 1.095052 1 0 ack 40 ------- 1 1.0 0.0 9 89
- 1.095052 1 0 ack 40 ------- 1 1.0 0.0 9 89
r 1.105054 1 0 ack 40 ------- 1 1.0 0.0 9 89
+ 1.117413 1 2 tcp 1040 ------- 1 1.1 2.0 8 90
- 1.117413 1 2 tcp 1040 ------- 1 1.1 2.0 8 90
+ 1.12034 3 4 tcp 1040 ------- 1 3.1 4.0 8 91
- 1.12034 3 4 tcp 1040 ------- 1 3.1 4.0 8 91
r 1.127455 1 2 tcp 1040 ------- 1 1.1 2.0 8 90
+ 1.127455 2 1 ack 40 ------- 1 2.0 1.1 8 92
- 1.127455 2 1 ack 40 ------- 1 2.0 1.1 8 92
r 1.130381 3 4 tcp 1040 ------- 1 3.1 4.0 8 91
+ 1.130381 4 3 ack 40 ------- 1 4.0 3.1 8 93
- 1.130381 4 3 ack 40 ------- 1 4.0 3.1 8 93
r 1.137456 2 1 ack 40 ------- 1 2.0 1.1 8 92
r 1.140383 4 3 ack 40 ------- 1 4.0 3.1 8 93
+ 1.143918 0 1 tcp 1040 ------- 1 0.0 1.0 10 94
- 1.143918 0 1 tcp 1040 ------- 1 0.0 1.0 10 94
r 1.15396 0 1 tcp 1040 ------- 1 0.0 1.0 10 94
+ 1.15396 1 0 ack 40 ------- 1 1.0 0.0 10 95
- 1.15396 1 0 ack 40 ------- 1 1.0 0.0 10 95
r 1.163962 1 0 ack 40 ------- 1 1.0 0.0 10 95
+ 1.177884 2 3 tcp 1040 ------- 1 2.1 3.0 12 96
- 1.177884 2 3 tcp 1040 ------- 1 2.1 3.0 12 96
r 1.187925 2 3 tcp 1040 ------- 1 2.1 3.0 12 96
+ 1.187925 3 2 ack 40 ------- 1 3.0 2.1 12 97
- 1.187925 3 2 ack 40 ------- 1 3.0 2.1 12 97
r 1.197927 3 2 ack 40 ------- 1 3.0 2.1 12 97
+ 1.198872 4 0 tcp 1040 ---A--- 1 4.1 0.1 7 98
- 1.198872 4 0 tcp 1040 ---A--- 1 4.1 0.1 7 98
r 1.208913 4 0 tcp 1040 ---A--- 1 4.1 0.1 7 98
+ 1.208913 0 4 ack 40 ------- 1 0.1 4.1 7 99
- 1.208913 0 4 ack 40 ------- 1 0.1 4.1 7 99
r 1.218915 0 4 ack 40 ------- 1 0.1 4.1 7 99
