+ 0.2 0 1 tcp 40 ------- 1 0.0 1.0 0 0
- 0.2 0 1 tcp 40 ------- 1 0.0 1.0 0 0
+ 0.2 1 2 tcp 40 ------- 1 1.1 2.0 0 1
- 0.2 1 2 tcp 40 ------- 1 1.1 2.0 0 1
+ 0.2 2 3 tcp 40 ------- 1 2.1 3.0 0 2
- 0.2 2 3 tcp 40 ------- 1 2.1 3.0 0 2
+ 0.2 3 4 tcp 40 ------- 1 3.1 4.0 0 3
- 0.2 3 4 tcp 40 ------- 1 3.1 4.0 0 3
+ 0.2 4 5 tcp 40 ------- 1 4.1 5.0 0 4
- 0.2 4 5 tcp 40 ------- 1 4.1 5.0 0 4
+ 0.2 5 0 tcp 40 ------- 1 5.1 0.1 0 5
- 0.2 5 0 tcp 40 ------- 1 5.1 0.1 0 5
r 0.210002 0 1 tcp 40 ------- 1 0.0 1.0 0 0
+ 0.210002 1 0 ack 40 ------- 1 1.0 0.0 0 6
- 0.210002 1 0 ack 40 ------- 1 1.0 0.0 0 6
r 0.210002 1 2 tcp 40 ------- 1 1.1 2.0 0 1
+ 0.210002 2 1 ack 40 ------- 1 2.0 1.1 0 7
- 0.210002 2 1 ack 40 ------- 1 2.0 1.1 0 7
r 0.210002 2 3 tcp 40 ------- 1 2.1 3.0 0 2
+ 0.210002 3 2 ack 40 ------- 1 3.0 2.1 0 8
- 0.210002 3 2 ack 40 ------- 1 3.0 2.1 0 8
r 0.210002 3 4 tcp 40 ------- 1 3.1 4.0 0 3
+ 0.210002 4 3 ack 40 ------- 1 4.0 3.1 0 9
- 0.210002 4 3 ack 40 ------- 1 4.0 3.1 0 9
r 0.210002 4 5 tcp 40 ------- 1 4.1 5.0 0 4
+ 0.210002 5 4 ack 40 ------- 1 5.0 4.1 0 10
- 0.210002 5 4 ack 40 ------- 1 5.0 4.1 0 10
r 0.210002 5 0 tcp 40 ------- 1 5.1 0.1 0 5
+ 0.210002 0 5 ack 40 ------- 1 0.1 5.1 0 11
- 0.210002 0 5 ack 40 ------- 1 0.1 5.1 0 11
r 0.220003 1 0 ack 40 ------- 1 1.0 0.0 0 6
+ 0.220003 0 1 tcp 1040 ------- 1 0.0 1.0 1 12
- 0.220003 0 1 tcp 1040 ------- 1 0.0 1.0 1 12
+ 0.220003 0 1 tcp 1040 ------- 1 0.0 1.0 2 13
r 0.220003 2 1 ack 40 ------- 1 2.0 1.1 0 7
+ 0.220003 1 2 tcp 1040 ------- 1 1.1 2.0 1 14
- 0.220003 1 2 tcp 1040 ------- 1 1.1 2.0 1 14
+ 0.220003 1 2 tcp 1040 ------- 1 1.1 2.0 2 15
r 0.220003 3 2 ack 40 ------- 1 3.0 2.1 0 8
+ 0.220003 2 3 tcp 1040 ------- 1 2.1 3.0 1 16
- 0.220003 2 3 tcp 1040 ------- 1 2.1 3.0 1 16
+ 0.220003 2 3 tcp 1040 ------- 1 2.1 3.0 2 17
r 0.220003 4 3 ack 40 ------- 1 4.0 3.1 0 9
+ 0.220003 3 4 tcp 1040 ------- 1 3.1 4.0 1 18
- 0.220003 3 4 tcp 1040 ------- 1 3.1 4.0 1 18
+ 0.220003 3 4 tcp 1040 ------- 1 3.1 4.0 2 19
r 0.220003 5 4 ack 40 ------- 1 5.0 4.1 0 10
+ 0.220003 4 5 tcp 1040 ------- 1 4.1 5.0 1 20
- 0.220003 4 5 tcp 1040 ------- 1 4.1 5.0 1 20
+ 0.220003 4 5 tcp 1040 ------- 1 4.1 5.0 2 21
r 0.220003 0 5 ack 40 ------- 1 0.1 5.1 0 11
+ 0.220003 5 0 tcp 1040 ------- 1 5.1 0.1 1 22
- 0.220003 5 0 tcp 1040 ------- 1 5.1 0.1 1 22
+ 0.220003 5 0 tcp 1040 ------- 1 5.1 0.1 2 23
- 0.220045 0 1 tcp 1040 ------- 1 0.0 1.0 2 13
- 0.220045 1 2 tcp 1040 ------- 1 1.1 2.0 2 15
- 0.220045 2 3 tcp 1040 ------- 1 2.1 3.0 2 17
- 0.220045 3 4 tcp 1040 ------- 1 3.1 4.0 2 19
- 0.220045 4 5 tcp 1040 ------- 1 4.1 5.0 2 21
- 0.220045 5 0 tcp 1040 ------- 1 5.1 0.1 2 23
r 0.230045 0 1 tcp 1040 ------- 1 0.0 1.0 1 12
+ 0.230045 1 0 ack 40 ------- 1 1.0 0.0 1 24
- 0.230045 1 0 ack 40 ------- 1 1.0 0.0 1 24
r 0.230045 1 2 tcp 1040 ------- 1 1.1 2.0 1 14
+ 0.230045 2 1 ack 40 ------- 1 2.0 1.1 1 25
- 0.230045 2 1 ack 40 ------- 1 2.0 1.1 1 25
r 0.230045 2 3 tcp 1040 ------- 1 2.1 3.0 1 16
+ 0.230045 3 2 ack 40 ------- 1 3.0 2.1 1 26
- 0.230045 3 2 ack 40 ------- 1 3.0 2.1 1 26
r 0.230045 3 4 tcp 1040 ------- 1 3.1 4.0 1 18
+ 0.230045 4 3 ack 40 ------- 1 4.0 3.1 1 27
- 0.230045 4 3 ack 40 ------- 1 4.0 3.1 1 27
r 0.230045 4 5 tcp 1040 ------- 1 4.1 5.0 1 20
+ 0.230045 5 4 ack 40 ------- 1 5.0 4.1 1 28
- 0.230045 5 4 ack 40 ------- 1 5.0 4.1 1 28
r 0.230045 5 0 tcp 1040 ------- 1 5.1 0.1 1 22
+ 0.230045 0 5 ack 40 ------- 1 0.1 5.1 1 29
- 0.230045 0 5 ack 40 ------- 1 0.1 5.1 1 29
r 0.230086 0 1 tcp 1040 ------- 1 0.0 1.0 2 13
+ 0.230086 1 0 ack 40 ------- 1 1.0 0.0 2 30
- 0.230086 1 0 ack 40 ------- 1 1.0 0.0 2 30
r 0.230086 1 2 tcp 1040 ------- 1 1.1 2.0 2 15
+ 0.230086 2 1 ack 40 ------- 1 2.0 1.1 2 31
- 0.230086 2 1 ack 40 ------- 1 2.0 1.1 2 31
r 0.230086 2 3 tcp 1040 ------- 1 2.1 3.0 2 17
+ 0.230086 3 2 ack 40 ------- 1 3.0 2.1 2 32
- 0.230086 3 2 ack 40 ------- 1 3.0 2.1 2 32
r 0.230086 3 4 tcp 1040 ------- 1 3.1 4.0 2 19
+ 0.230086 4 3 ack 40 ------- 1 4.0 3.1 2 33
- 0.230086 4 3 ack 40 ------- 1 4.0 3.1 2 33
r 0.230086 4 5 tcp 1040 ------- 1 4.1 5.0 2 21
+ 0.230086 5 4 ack 40 ------- 1 5.0 4.1 2 34
- 0.230086 5 4 ack 40 ------- 1 5.0 4.1 2 34
r 0.230086 5 0 tcp 1040 ------- 1 5.1 0.1 2 23
+ 0.230086 0 5 ack 40 ------- 1 0.1 5.1 2 35
- 0.230086 0 5 ack 40 ------- 1 0.1 5.1 2 35
r 0.240046 1 0 ack 40 ------- 1 1.0 0.0 1 24
+ 0.240046 0 1 tcp 1040 ------- 1 0.0 1.0 3 36
- 0.240046 0 1 tcp 1040 ------- 1 0.0 1.0 3 36
+ 0.240046 0 1 tcp 1040 ------- 1 0.0 1.0 4 37
r 0.240046 2 1 ack 40 ------- 1 2.0 1.1 1 25
+ 0.240046 1 2 tcp 1040 ------- 1 1.1 2.0 3 38
- 0.240046 1 2 tcp 1040 ------- 1 1.1 2.0 3 38
+ 0.240046 1 2 tcp 1040 ------- 1 1.1 2.0 4 39
r 0.240046 3 2 ack 40 ------- 1 3.0 2.1 1 26
+ 0.240046 2 3 tcp 1040 ------- 1 2.1 3.0 3 40
- 0.240046 2 3 tcp 1040 ------- 1 2.1 3.0 3 40
+ 0.240046 2 3 tcp 1040 ------- 1 2.1 3.0 4 41
r 0.240046 4 3 ack 40 ------- 1 4.0 3.1 1 27
+ 0.240046 3 4 tcp 1040 ------- 1 3.1 4.0 3 42
- 0.240046 3 4 tcp 1040 ------- 1 3.1 4.0 3 42
+ 0.240046 3 4 tcp 1040 ------- 1 3.1 4.0 4 43
r 0.240046 5 4 ack 40 ------- 1 5.0 4.1 1 28
+ 0.240046 4 5 tcp 1040 ------- 1 4.1 5.0 3 44
- 0.240046 4 5 tcp 1040 ------- 1 4.1 5.0 3 44
+ 0.240046 4 5 tcp 1040 ------- 1 4.1 5.0 4 45
r 0.240046 0 5 ack 40 ------- 1 0.1 5.1 1 29
+ 0.240046 5 0 tcp 1040 ------- 1 5.1 0.1 3 46
- 0.240046 5 0 tcp 1040 ------- 1 5.1 0.1 3 46
+ 0.240046 5 0 tcp 1040 ------- 1 5.1 0.1 4 47
r 0.240088 1 0 ack 40 ------- 1 1.0 0.0 2 30
+ 0.240088 0 1 tcp 1040 ------- 1 0.0 1.0 5 48
+ 0.240088 0 1 tcp 1040 ------- 1 0.0 1.0 6 49
r 0.240088 2 1 ack 40 ------- 1 2.0 1.1 2 31
+ 0.240088 1 2 tcp 1040 ------- 1 1.1 2.0 5 50
+ 0.240088 1 2 tcp 1040 ------- 1 1.1 2.0 6 51
r 0.240088 3 2 ack 40 ------- 1 3.0 2.1 2 32
+ 0.240088 2 3 tcp 1040 ------- 1 2.1 3.0 5 52
+ 0.240088 2 3 tcp 1040 ------- 1 2.1 3.0 6 53
r 0.240088 4 3 ack 40 ------- 1 4.0 3.1 2 33
+ 0.240088 3 4 tcp 1040 ------- 1 3.1 4.0 5 54
+ 0.240088 3 4 tcp 1040 ------- 1 3.1 4.0 6 55
r 0.240088 5 4 ack 40 ------- 1 5.0 4.1 2 34
+ 0.240088 4 5 tcp 1040 ------- 1 4.1 5.0 5 56
+ 0.240088 4 5 tcp 1040 ------- 1 4.1 5.0 6 57
r 0.240088 0 5 ack 40 ------- 1 0.1 5.1 2 35
+ 0.240088 5 0 tcp 1040 ------- 1 5.1 0.1 5 58
+ 0.240088 5 0 tcp 1040 ------- 1 5.1 0.1 6 59
- 0.240088 0 1 tcp 1040 ------- 1 0.0 1.0 4 37
- 0.240088 1 2 tcp 1040 ------- 1 1.1 2.0 4 39
- 0.240088 2 3 tcp 1040 ------- 1 2.1 3.0 4 41
- 0.240088 3 4 tcp 1040 ------- 1 3.1 4.0 4 43
- 0.240088 4 5 tcp 1040 ------- 1 4.1 5.0 4 45
- 0.240088 5 0 tcp 1040 ------- 1 5.1 0.1 4 47
- 0.24013 0 1 tcp 1040 ------- 1 0.0 1.0 5 48
- 0.24013 1 2 tcp 1040 ------- 1 1.1 2.0 5 50
- 0.24013 2 3 tcp 1040 ------- 1 2.1 3.0 5 52
- 0.24013 3 4 tcp 1040 ------- 1 3.1 4.0 5 54
- 0.24013 4 5 tcp 1040 ------- 1 4.1 5.0 5 56
- 0.24013 5 0 tcp 1040 ------- 1 5.1 0.1 5 58
- 0.240171 0 1 tcp 1040 ------- 1 0.0 1.0 6 49
- 0.240171 1 2 tcp 1040 ------- 1 1.1 2.0 6 51
- 0.240171 2 3 tcp 1040 ------- 1 2.1 3.0 6 53
- 0.240171 3 4 tcp 1040 ------- 1 3.1 4.0 6 55
- 0.240171 4 5 tcp 1040 ------- 1 4.1 5.0 6 57
- 0.240171 5 0 tcp 1040 ------- 1 5.1 0.1 6 59
r 0.250088 0 1 tcp 1040 ------- 1 0.0 1.0 3 36
+ 0.250088 1 0 ack 40 ------- 1 1.0 0.0 3 60
- 0.250088 1 0 ack 40 ------- 1 1.0 0.0 3 60
r 0.250088 1 2 tcp 1040 ------- 1 1.1 2.0 3 38
+ 0.250088 2 1 ack 40 ------- 1 2.0 1.1 3 61
- 0.250088 2 1 ack 40 ------- 1 2.0 1.1 3 61
r 0.250088 2 3 tcp 1040 ------- 1 2.1 3.0 3 40
+ 0.250088 3 2 ack 40 ------- 1 3.0 2.1 3 62
- 0.250088 3 2 ack 40 ------- 1 3.0 2.1 3 62
r 0.250088 3 4 tcp 1040 ------- 1 3.1 4.0 3 42
+ 0.250088 4 3 ack 40 ------- 1 4.0 3.1 3 63
- 0.250088 4 3 ack 40 ------- 1 4.0 3.1 3 63
r 0.250088 4 5 tcp 1040 ------- 1 4.1 5.0 3 44
+ 0.250088 5 4 ack 40 ------- 1 5.0 4.1 3 64
- 0.250088 5 4 ack 40 ------- 1 5.0 4.1 3 64
r 0.250088 5 0 tcp 1040 ------- 1 5.1 0.1 3 46
+ 0.250088 0 5 ack 40 ------- 1 0.1 5.1 3 65
- 0.250088 0 5 ack 40 ------- 1 0.1 5.1 3 65
r 0.25013 0 1 tcp 1040 ------- 1 0.0 1.0 4 37
+ 0.25013 1 0 ack 40 ------- 1 1.0 0.0 4 66
- 0.25013 1 0 ack 40 ------- 1 1.0 0.0 4 66
r 0.25013 1 2 tcp 1040 ------- 1 1.1 2.0 4 39
+ 0.25013 2 1 ack 40 ------- 1 2.0 1.1 4 67
- 0.25013 2 1 ack 40 ------- 1 2.0 1.1 4 67
r 0.25013 2 3 tcp 1040 ------- 1 2.1 3.0 4 41
+ 0.25013 3 2 ack 40 ------- 1 3.0 2.1 4 68
- 0.25013 3 2 ack 40 ------- 1 3.0 2.1 4 68
r 0.25013 3 4 tcp 1040 ------- 1 3.1 4.0 4 43
+ 0.25013 4 3 ack 40 ------- 1 4.0 3.1 4 69
- 0.25013 4 3 ack 40 ------- 1 4.0 3.1 4 69
r 0.25013 4 5 tcp 1040 ------- 1 4.1 5.0 4 45
+ 0.25013 5 4 ack 40 ------- 1 5.0 4.1 4 70
- 0.25013 5 4 ack 40 ------- 1 5.0 4.1 4 70
r 0.25013 5 0 tcp 1040 ------- 1 5.1 0.1 4 47
+ 0.25013 0 5 ack 40 ------- 1 0.1 5.1 4 71
- 0.25013 0 5 ack 40 ------- 1 0.1 5.1 4 71
r 0.250171 0 1 tcp 1040 ------- 1 0.0 1.0 5 48
+ 0.250171 1 0 ack 40 ------- 1 1.0 0.0 5 72
- 0.250171 1 0 ack 40 ------- 1 1.0 0.0 5 72
r 0.250171 1 2 tcp 1040 ------- 1 1.1 2.0 5 50
+ 0.250171 2 1 ack 40 ------- 1 2.0 1.1 5 73
- 0.250171 2 1 ack 40 ------- 1 2.0 1.1 5 73
r 0.250171 2 3 tcp 1040 ------- 1 2.1 3.0 5 52
+ 0.250171 3 2 ack 40 ------- 1 3.0 2.1 5 74
- 0.250171 3 2 ack 40 ------- 1 3.0 2.1 5 74
r 0.250171 3 4 tcp 1040 ------- 1 3.1 4.0 5 54
+ 0.250171 4 3 ack 40 ------- 1 4.0 3.1 5 75
- 0.250171 4 3 ack 40 ------- 1 4.0 3.1 5 75
r 0.250171 4 5 tcp 1040 ------- 1 4.1 5.0 5 56
+ 0.250171 5 4 ack 40 ------- 1 5.0 4.1 5 76
- 0.250171 5 4 ack 40 ------- 1 5.0 4.1 5 76
r 0.250171 5 0 tcp 1040 ------- 1 5.1 0.1 5 58
+ 0.250171 0 5 ack 40 ------- 1 0.1 5.1 5 77
- 0.250171 0 5 ack 40 ------- 1 0.1 5.1 5 77
r 0.250213 0 1 tcp 1040 ------- 1 0.0 1.0 6 49
+ 0.250213 1 0 ack 40 ------- 1 1.0 0.0 6 78
- 0.250213 1 0 ack 40 ------- 1 1.0 0.0 6 78
r 0.250213 1 2 tcp 1040 ------- 1 1.1 2.0 6 51
+ 0.250213 2 1 ack 40 ------- 1 2.0 1.1 6 79
- 0.250213 2 1 ack 40 ------- 1 2.0 1.1 6 79
r 0.250213 2 3 tcp 1040 ------- 1 2.1 3.0 6 53
+ 0.250213 3 2 ack 40 ------- 1 3.0 2.1 6 80
- 0.250213 3 2 ack 40 ------- 1 3.0 2.1 6 80
r 0.250213 3 4 tcp 1040 ------- 1 3.1 4.0 6 55
+ 0.250213 4 3 ack 40 ------- 1 4.0 3.1 6 81
- 0.250213 4 3 ack 40 ------- 1 4.0 3.1 6 81
r 0.250213 4 5 tcp 1040 ------- 1 4.1 5.0 6 57
+ 0.250213 5 4 ack 40 ------- 1 5.0 4.1 6 82
- 0.250213 5 4 ack 40 ------- 1 5.0 4.1 6 82
r 0.250213 5 0 tcp 1040 ------- 1 5.1 0.1 6 59
+ 0.250213 0 5 ack 40 ------- 1 0.1 5.1 6 83
- 0.250213 0 5 ack 40 ------- 1 0.1 5.1 6 83
r 0.26009 1 0 ack 40 ------- 1 1.0 0.0 3 60
+ 0.26009 0 1 tcp 1040 ------- 1 0.0 1.0 7 84
- 0.26009 0 1 tcp 1040 ------- 1 0.0 1.0 7 84
+ 0.26009 0 1 tcp 1040 ------- 1 0.0 1.0 8 85
r 0.26009 2 1 ack 40 ------- 1 2.0 1.1 3 61
+ 0.26009 1 2 tcp 1040 ------- 1 1.1 2.0 7 86
- 0.26009 1 2 tcp 1040 ------- 1 1.1 2.0 7 86
+ 0.26009 1 2 tcp 1040 ------- 1 1.1 2.0 8 87
r 0.26009 3 2 ack 40 ------- 1 3.0 2.1 3 62
+ 0.26009 2 3 tcp 1040 ------- 1 2.1 3.0 7 88
- 0.26009 2 3 tcp 1040 ------- 1 2.1 3.0 7 88
+ 0.26009 2 3 tcp 1040 ------- 1 2.1 3.0 8 89
r 0.26009 4 3 ack 40 ------- 1 4.0 3.1 3 63
+ 0.26009 3 4 tcp 1040 ------- 1 3.1 4.0 7 90
- 0.26009 3 4 tcp 1040 ------- 1 3.1 4.0 7 90
+ 0.26009 3 4 tcp 1040 ------- 1 3.1 4.0 8 91
r 0.26009 5 4 ack 40 ------- 1 5.0 4.1 3 64
+ 0.26009 4 5 tcp 1040 ------- 1 4.1 5.0 7 92
- 0.26009 4 5 tcp 1040 ------- 1 4.1 5.0 7 92
+ 0.26009 4 5 tcp 1040 ------- 1 4.1 5.0 8 93
r 0.26009 0 5 ack 40 ------- 1 0.1 5.1 3 65
+ 0.26009 5 0 tcp 1040 ------- 1 5.1 0.1 7 94
- 0.26009 5 0 tcp 1040 ------- 1 5.1 0.1 7 94
+ 0.26009 5 0 tcp 1040 ------- 1 5.1 0.1 8 95
r 0.260131 1 0 ack 40 ------- 1 1.0 0.0 4 66
+ 0.260131 0 1 tcp 1040 ------- 1 0.0 1.0 9 96
+ 0.260131 0 1 tcp 1040 ------- 1 0.0 1.0 10 97
r 0.260131 2 1 ack 40 ------- 1 2.0 1.1 4 67
+ 0.260131 1 2 tcp 1040 ------- 1 1.1 2.0 9 98
+ 0.260131 1 2 tcp 1040 ------- 1 1.1 2.0 10 99
r 0.260131 3 2 ack 40 ------- 1 3.0 2.1 4 68
+ 0.260131 2 3 tcp 1040 ------- 1 2.1 3.0 9 100
+ 0.260131 2 3 tcp 1040 ------- 1 2.1 3.0 10 101
r 0.260131 4 3 ack 40 ------- 1 4.0 3.1 4 69
+ 0.260131 3 4 tcp 1040 ------- 1 3.1 4.0 9 102
+ 0.260131 3 4 tcp 1040 ------- 1 3.1 4.0 10 103
r 0.260131 5 4 ack 40 ------- 1 5.0 4.1 4 70
+ 0.260131 4 5 tcp 1040 ------- 1 4.1 5.0 9 104
+ 0.260131 4 5 tcp 1040 ------- 1 4.1 5.0 10 105
r 0.260131 0 5 ack 40 ------- 1 0.1 5.1 4 71
+ 0.260131 5 0 tcp 1040 ------- 1 5.1 0.1 9 106
+ 0.260131 5 0 tcp 1040 ------- 1 5.1 0.1 10 107
- 0.260131 0 1 tcp 1040 ------- 1 0.0 1.0 8 85
- 0.260131 1 2 tcp 1040 ------- 1 1.1 2.0 8 87
- 0.260131 2 3 tcp 1040 ------- 1 2.1 3.0 8 89
- 0.260131 3 4 tcp 1040 ------- 1 3.1 4.0 8 91
- 0.260131 4 5 tcp 1040 ------- 1 4.1 5.0 8 93
- 0.260131 5 0 tcp 1040 ------- 1 5.1 0.1 8 95
- 0.260173 0 1 tcp 1040 ------- 1 0.0 1.0 9 96
- 0.260173 1 2 tcp 1040 ------- 1 1.1 2.0 9 98
- 0.260173 2 3 tcp 1040 ------- 1 2.1 3.0 9 100
- 0.260173 3 4 tcp 1040 ------- 1 3.1 4.0 9 102
- 0.260173 4 5 tcp 1040 ------- 1 4.1 5.0 9 104
- 0.260173 5 0 tcp 1040 ------- 1 5.1 0.1 9 106
r 0.260173 1 0 ack 40 ------- 1 1.0 0.0 5 72
+ 0.260173 0 1 tcp 1040 ------- 1 0.0 1.0 11 108
+ 0.260173 0 1 tcp 1040 ------- 1 0.0 1.0 12 109
r 0.260173 2 1 ack 40 ------- 1 2.0 1.1 5 73
+ 0.260173 1 2 tcp 1040 ------- 1 1.1 2.0 11 110
+ 0.260173 1 2 tcp 1040 ------- 1 1.1 2.0 12 111
r 0.260173 3 2 ack 40 ------- 1 3.0 2.1 5 74
+ 0.260173 2 3 tcp 1040 ------- 1 2.1 3.0 11 112
+ 0.260173 2 3 tcp 1040 ------- 1 2.1 3.0 12 113
r 0.260173 4 3 ack 40 ------- 1 4.0 3.1 5 75
+ 0.260173 3 4 tcp 1040 ------- 1 3.1 4.0 11 114
+ 0.260173 3 4 tcp 1040 ------- 1 3.1 4.0 12 115
r 0.260173 5 4 ack 40 ------- 1 5.0 4.1 5 76
+ 0.260173 4 5 tcp 1040 ------- 1 4.1 5.0 11 116
+ 0.260173 4 5 tcp 1040 ------- 1 4.1 5.0 12 117
r 0.260173 0 5 ack 40 ------- 1 0.1 5.1 5 77
+ 0.260173 5 0 tcp 1040 ------- 1 5.1 0.1 11 118
+ 0.260173 5 0 tcp 1040 ------- 1 5.1 0.1 12 119
- 0.260214 0 1 tcp 1040 ------- 1 0.0 1.0 10 97
- 0.260214 1 2 tcp 1040 ------- 1 1.1 2.0 10 99
- 0.260214 2 3 tcp 1040 ------- 1 2.1 3.0 10 101
- 0.260214 3 4 tcp 1040 ------- 1 3.1 4.0 10 103
- 0.260214 4 5 tcp 1040 ------- 1 4.1 5.0 10 105
- 0.260214 5 0 tcp 1040 ------- 1 5.1 0.1 10 107
r 0.260214 1 0 ack 40 ------- 1 1.0 0.0 6 78
+ 0.260214 0 1 tcp 1040 ------- 1 0.0 1.0 13 120
+ 0.260214 0 1 tcp 1040 ------- 1 0.0 1.0 14 121
r 0.260214 2 1 ack 40 ------- 1 2.0 1.1 6 79
+ 0.260214 1 2 tcp 1040 ------- 1 1.1 2.0 13 122
+ 0.260214 1 2 tcp 1040 ------- 1 1.1 2.0 14 123
r 0.260214 3 2 ack 40 ------- 1 3.0 2.1 6 80
+ 0.260214 2 3 tcp 1040 ------- 1 2.1 3.0 13 124
+ 0.260214 2 3 tcp 1040 ------- 1 2.1 3.0 14 125
r 0.260214 4 3 ack 40 ------- 1 4.0 3.1 6 81
+ 0.260214 3 4 tcp 1040 ------- 1 3.1 4.0 13 126
+ 0.260214 3 4 tcp 1040 ------- 1 3.1 4.0 14 127
r 0.260214 5 4 ack 40 ------- 1 5.0 4.1 6 82
+ 0.260214 4 5 tcp 1040 ------- 1 4.1 5.0 13 128
+ 0.260214 4 5 tcp 1040 ------- 1 4.1 5.0 14 129
r 0.260214 0 5 ack 40 ------- 1 0.1 5.1 6 83
+ 0.260214 5 0 tcp 1040 ------- 1 5.1 0.1 13 130
+ 0.260214 5 0 tcp 1040 ------- 1 5.1 0.1 14 131
- 0.260256 0 1 tcp 1040 ------- 1 0.0 1.0 11 108
- 0.260256 1 2 tcp 1040 ------- 1 1.1 2.0 11 110
- 0.260256 2 3 tcp 1040 ------- 1 2.1 3.0 11 112
- 0.260256 3 4 tcp 1040 ------- 1 3.1 4.0 11 114
- 0.260256 4 5 tcp 1040 ------- 1 4.1 5.0 11 116
- 0.260256 5 0 tcp 1040 ------- 1 5.1 0.1 11 118
- 0.260298 0 1 tcp 1040 ------- 1 0.0 1.0 12 109
- 0.260298 1 2 tcp 1040 ------- 1 1.1 2.0 12 111
- 0.260298 2 3 tcp 1040 ------- 1 2.1 3.0 12 113
- 0.260298 3 4 tcp 1040 ------- 1 3.1 4.0 12 115
- 0.260298 4 5 tcp 1040 ------- 1 4.1 5.0 12 117
- 0.260298 5 0 tcp 1040 ------- 1 5.1 0.1 12 119
- 0.260339 0 1 tcp 1040 ------- 1 0.0 1.0 13 120
- 0.260339 1 2 tcp 1040 ------- 1 1.1 2.0 13 122
- 0.260339 2 3 tcp 1040 ------- 1 2.1 3.0 13 124
- 0.260339 3 4 tcp 1040 ------- 1 3.1 4.0 13 126
- 0.260339 4 5 tcp 1040 ------- 1 4.1 5.0 13 128
- 0.260339 5 0 tcp 1040 ------- 1 5.1 0.1 13 130
- 0.260381 0 1 tcp 1040 ------- 1 0.0 1.0 14 121
- 0.260381 1 2 tcp 1040 ------- 1 1.1 2.0 14 123
- 0.260381 2 3 tcp 1040 ------- 1 2.1 3.0 14 125
- 0.260381 3 4 tcp 1040 ------- 1 3.1 4.0 14 127
- 0.260381 4 5 tcp 1040 ------- 1 4.1 5.0 14 129
- 0.260381 5 0 tcp 1040 ------- 1 5.1 0.1 14 131
r 0.270131 0 1 tcp 1040 ------- 1 0.0 1.0 7 84
+ 0.270131 1 0 ack 40 ------- 1 1.0 0.0 7 132
- 0.270131 1 0 ack 40 ------- 1 1.0 0.0 7 132
r 0.270131 1 2 tcp 1040 ------- 1 1.1 2.0 7 86
+ 0.270131 2 1 ack 40 ------- 1 2.0 1.1 7 133
- 0.270131 2 1 ack 40 ------- 1 2.0 1.1 7 133
r 0.270131 2 3 tcp 1040 ------- 1 2.1 3.0 7 88
+ 0.270131 3 2 ack 40 ------- 1 3.0 2.1 7 134
- 0.270131 3 2 ack 40 ------- 1 3.0 2.1 7 134
r 0.270131 3 4 tcp 1040 ------- 1 3.1 4.0 7 90
+ 0.270131 4 3 ack 40 ------- 1 4.0 3.1 7 135
- 0.270131 4 3 ack 40 ------- 1 4.0 3.1 7 135
r 0.270131 4 5 tcp 1040 ------- 1 4.1 5.0 7 92
+ 0.270131 5 4 ack 40 ------- 1 5.0 4.1 7 136
- 0.270131 5 4 ack 40 ------- 1 5.0 4.1 7 136
r 0.270131 5 0 tcp 1040 ------- 1 5.1 0.1 7 94
+ 0.270131 0 5 ack 40 ------- 1 0.1 5.1 7 137
- 0.270131 0 5 ack 40 ------- 1 0.1 5.1 7 137
r 0.270173 0 1 tcp 1040 ------- 1 0.0 1.0 8 85
+ 0.270173 1 0 ack 40 ------- 1 1.0 0.0 8 138
- 0.270173 1 0 ack 40 ------- 1 1.0 0.0 8 138
r 0.270173 1 2 tcp 1040 ------- 1 1.1 2.0 8 87
+ 0.270173 2 1 ack 40 ------- 1 2.0 1.1 8 139
- 0.270173 2 1 ack 40 ------- 1 2.0 1.1 8 139
r 0.270173 2 3 tcp 1040 ------- 1 2.1 3.0 8 89
+ 0.270173 3 2 ack 40 ------- 1 3.0 2.1 8 140
- 0.270173 3 2 ack 40 ------- 1 3.0 2.1 8 140
r 0.270173 3 4 tcp 1040 ------- 1 3.1 4.0 8 91
+ 0.270173 4 3 ack 40 ------- 1 4.0 3.1 8 141
- 0.270173 4 3 ack 40 ------- 1 4.0 3.1 8 141
r 0.270173 4 5 tcp 1040 ------- 1 4.1 5.0 8 93
+ 0.270173 5 4 ack 40 ------- 1 5.0 4.1 8 142
- 0.270173 5 4 ack 40 ------- 1 5.0 4.1 8 142
r 0.270173 5 0 tcp 1040 ------- 1 5.1 0.1 8 95
+ 0.270173 0 5 ack 40 ------- 1 0.1 5.1 8 143
- 0.270173 0 5 ack 40 ------- 1 0.1 5.1 8 143
r 0.270214 0 1 tcp 1040 ------- 1 0.0 1.0 9 96
+ 0.270214 1 0 ack 40 ------- 1 1.0 0.0 9 144
- 0.270214 1 0 ack 40 ------- 1 1.0 0.0 9 144
r 0.270214 1 2 tcp 1040 ------- 1 1.1 2.0 9 98
+ 0.270214 2 1 ack 40 ------- 1 2.0 1.1 9 145
- 0.270214 2 1 ack 40 ------- 1 2.0 1.1 9 145
r 0.270214 2 3 tcp 1040 ------- 1 2.1 3.0 9 100
+ 0.270214 3 2 ack 40 ------- 1 3.0 2.1 9 146
- 0.270214 3 2 ack 40 ------- 1 3.0 2.1 9 146
r 0.270214 3 4 tcp 1040 ------- 1 3.1 4.0 9 102
+ 0.270214 4 3 ack 40 ------- 1 4.0 3.1 9 147
- 0.270214 4 3 ack 40 ------- 1 4.0 3.1 9 147
r 0.270214 4 5 tcp 1040 ------- 1 4.1 5.0 9 104
+ 0.270214 5 4 ack 40 ------- 1 5.0 4.1 9 148
- 0.270214 5 4 ack 40 ------- 1 5.0 4.1 9 148
r 0.270214 5 0 tcp 1040 ------- 1 5.1 0.1 9 106
+ 0.270214 0 5 ack 40 ------- 1 0.1 5.1 9 149
- 0.270214 0 5 ack 40 ------- 1 0.1 5.1 9 149
r 0.270256 0 1 tcp 1040 ------- 1 0.0 1.0 10 97
+ 0.270256 1 0 ack 40 ------- 1 1.0 0.0 10 150
- 0.270256 1 0 ack 40 ------- 1 1.0 0.0 10 150
r 0.270256 1 2 tcp 1040 ------- 1 1.1 2.0 10 99
+ 0.270256 2 1 ack 40 ------- 1 2.0 1.1 10 151
- 0.270256 2 1 ack 40 ------- 1 2.0 1.1 10 151
r 0.270256 2 3 tcp 1040 ------- 1 2.1 3.0 10 101
+ 0.270256 3 2 ack 40 ------- 1 3.0 2.1 10 152
- 0.270256 3 2 ack 40 ------- 1 3.0 2.1 10 152
r 0.270256 3 4 tcp 1040 ------- 1 3.1 4.0 10 103
+ 0.270256 4 3 ack 40 ------- 1 4.0 3.1 10 153
- 0.270256 4 3 ack 40 ------- 1 4.0 3.1 10 153
r 0.270256 4 5 tcp 1040 ------- 1 4.1 5.0 10 105
+ 0.270256 5 4 ack 40 ------- 1 5.0 4.1 10 154
- 0.270256 5 4 ack 40 ------- 1 5.0 4.1 10 154
r 0.270256 5 0 tcp 1040 ------- 1 5.1 0.1 10 107
+ 0.270256 0 5 ack 40 ------- 1 0.1 5.1 10 155
- 0.270256 0 5 ack 40 ------- 1 0.1 5.1 10 155
r 0.270298 0 1 tcp 1040 ------- 1 0.0 1.0 11 108
+ 0.270298 1 0 ack 40 ------- 1 1.0 0.0 11 156
- 0.270298 1 0 ack 40 ------- 1 1.0 0.0 11 156
r 0.270298 1 2 tcp 1040 ------- 1 1.1 2.0 11 110
+ 0.270298 2 1 ack 40 ------- 1 2.0 1.1 11 157
- 0.270298 2 1 ack 40 ------- 1 2.0 1.1 11 157
r 0.270298 2 3 tcp 1040 ------- 1 2.1 3.0 11 112
+ 0.270298 3 2 ack 40 ------- 1 3.0 2.1 11 158
- 0.270298 3 2 ack 40 ------- 1 3.0 2.1 11 158
r 0.270298 3 4 tcp 1040 ------- 1 3.1 4.0 11 114
+ 0.270298 4 3 ack 40 ------- 1 4.0 3.1 11 159
- 0.270298 4 3 ack 40 ------- 1 4.0 3.1 11 159
r 0.270298 4 5 tcp 1040 ------- 1 4.1 5.0 11 116
+ 0.270298 5 4 ack 40 ------- 1 5.0 4.1 11 160
- 0.270298 5 4 ack 40 ------- 1 5.0 4.1 11 160
r 0.270298 5 0 tcp 1040 ------- 1 5.1 0.1 11 118
+ 0.270298 0 5 ack 40 ------- 1 0.1 5.1 11 161
- 0.270298 0 5 ack 40 ------- 1 0.1 5.1 11 161
r 0.270339 0 1 tcp 1040 ------- 1 0.0 1.0 12 109
+ 0.270339 1 0 ack 40 ------- 1 1.0 0.0 12 162
- 0.270339 1 0 ack 40 ------- 1 1.0 0.0 12 162
r 0.270339 1 2 tcp 1040 ------- 1 1.1 2.0 12 111
+ 0.270339 2 1 ack 40 ------- 1 2.0 1.1 12 163
- 0.270339 2 1 ack 40 ------- 1 2.0 1.1 12 163
r 0.270339 2 3 tcp 1040 ------- 1 2.1 3.0 12 113
+ 0.270339 3 2 ack 40 ------- 1 3.0 2.1 12 164
- 0.270339 3 2 ack 40 ------- 1 3.0 2.1 12 164
r 0.270339 3 4 tcp 1040 ------- 1 3.1 4.0 12 115
+ 0.270339 4 3 ack 40 ------- 1 4.0 3.1 12 165
- 0.270339 4 3 ack 40 ------- 1 4.0 3.1 12 165
r 0.270339 4 5 tcp 1040 ------- 1 4.1 5.0 12 117
+ 0.270339 5 4 ack 40 ------- 1 5.0 4.1 12 166
- 0.270339 5 4 ack 40 ------- 1 5.0 4.1 12 166
r 0.270339 5 0 tcp 1040 ------- 1 5.1 0.1 12 119
+ 0.270339 0 5 ack 40 ------- 1 0.1 5.1 12 167
- 0.270339 0 5 ack 40 ------- 1 0.1 5.1 12 167
r 0.270381 0 1 tcp 1040 ------- 1 0.0 1.0 13 120
+ 0.270381 1 0 ack 40 ------- 1 1.0 0.0 13 168
- 0.270381 1 0 ack 40 ------- 1 1.0 0.0 13 168
r 0.270381 1 2 tcp 1040 ------- 1 1.1 2.0 13 122
+ 0.270381 2 1 ack 40 ------- 1 2.0 1.1 13 169
- 0.270381 2 1 ack 40 ------- 1 2.0 1.1 13 169
r 0.270381 2 3 tcp 1040 ------- 1 2.1 3.0 13 124
+ 0.270381 3 2 ack 40 ------- 1 3.0 2.1 13 170
- 0.270381 3 2 ack 40 ------- 1 3.0 2.1 13 170
r 0.270381 3 4 tcp 1040 ------- 1 3.1 4.0 13 126
+ 0.270381 4 3 ack 40 ------- 1 4.0 3.1 13 171
- 0.270381 4 3 ack 40 ------- 1 4.0 3.1 13 171
r 0.270381 4 5 tcp 1040 ------- 1 4.1 5.0 13 128
+ 0.270381 5 4 ack 40 ------- 1 5.0 4.1 13 172
- 0.270381 5 4 ack 40 ------- 1 5.0 4.1 13 172
r 0.270381 5 0 tcp 1040 ------- 1 5.1 0.1 13 130
+ 0.270381 0 5 ack 40 ------- 1 0.1 5.1 13 173
- 0.270381 0 5 ack 40 ------- 1 0.1 5.1 13 173
r 0.270422 0 1 tcp 1040 ------- 1 0.0 1.0 14 121
+ 0.270422 1 0 ack 40 ------- 1 1.0 0.0 14 174
- 0.270422 1 0 ack 40 ------- 1 1.0 0.0 14 174
r 0.270422 1 2 tcp 1040 ------- 1 1.1 2.0 14 123
+ 0.270422 2 1 ack 40 ------- 1 2.0 1.1 14 175
- 0.270422 2 1 ack 40 ------- 1 2.0 1.1 14 175
r 0.270422 2 3 tcp 1040 ------- 1 2.1 3.0 14 125
+ 0.270422 3 2 ack 40 ------- 1 3.0 2.1 14 176
- 0.270422 3 2 ack 40 ------- 1 3.0 2.1 14 176
r 0.270422 3 4 tcp 1040 ------- 1 3.1 4.0 14 127
+ 0.270422 4 3 ack 40 ------- 1 4.0 3.1 14 177
- 0.270422 4 3 ack 40 ------- 1 4.0 3.1 14 177
r 0.270422 4 5 tcp 1040 ------- 1 4.1 5.0 14 129
+ 0.270422 5 4 ack 40 ------- 1 5.0 4.1 14 178
- 0.270422 5 4 ack 40 ------- 1 5.0 4.1 14 178
r 0.270422 5 0 tcp 1040 ------- 1 5.1 0.1 14 131
+ 0.270422 0 5 ack 40 ------- 1 0.1 5.1 14 179
- 0.270422 0 5 ack 40 ------- 1 0.1 5.1 14 179
r 0.280133 1 0 ack 40 ------- 1 1.0 0.0 7 132
+ 0.280133 0 1 tcp 1040 ------- 1 0.0 1.0 15 180
- 0.280133 0 1 tcp 1040 ------- 1 0.0 1.0 15 180
+ 0.280133 0 1 tcp 1040 ------- 1 0.0 1.0 16 181
r 0.280133 2 1 ack 40 ------- 1 2.0 1.1 7 133
+ 0.280133 1 2 tcp 1040 ------- 1 1.1 2.0 15 182
- 0.280133 1 2 tcp 1040 ------- 1 1.1 2.0 15 182
+ 0.280133 1 2 tcp 1040 ------- 1 1.1 2.0 16 183
r 0.280133 3 2 ack 40 ------- 1 3.0 2.1 7 134
+ 0.280133 2 3 tcp 1040 ------- 1 2.1 3.0 15 184
- 0.280133 2 3 tcp 1040 ------- 1 2.1 3.0 15 184
+ 0.280133 2 3 tcp 1040 ------- 1 2.1 3.0 16 185
r 0.280133 4 3 ack 40 ------- 1 4.0 3.1 7 135
+ 0.280133 3 4 tcp 1040 ------- 1 3.1 4.0 15 186
- 0.280133 3 4 tcp 1040 ------- 1 3.1 4.0 15 186
+ 0.280133 3 4 tcp 1040 ------- 1 3.1 4.0 16 187
r 0.280133 5 4 ack 40 ------- 1 5.0 4.1 7 136
+ 0.280133 4 5 tcp 1040 ------- 1 4.1 5.0 15 188
- 0.280133 4 5 tcp 1040 ------- 1 4.1 5.0 15 188
+ 0.280133 4 5 tcp 1040 ------- 1 4.1 5.0 16 189
r 0.280133 0 5 ack 40 ------- 1 0.1 5.1 7 137
+ 0.280133 5 0 tcp 1040 ------- 1 5.1 0.1 15 190
- 0.280133 5 0 tcp 1040 ------- 1 5.1 0.1 15 190
+ 0.280133 5 0 tcp 1040 ------- 1 5.1 0.1 16 191
r 0.280174 1 0 ack 40 ------- 1 1.0 0.0 8 138
+ 0.280174 0 1 tcp 1040 ------- 1 0.0 1.0 17 192
+ 0.280174 0 1 tcp 1040 ------- 1 0.0 1.0 18 193
r 0.280174 2 1 ack 40 ------- 1 2.0 1.1 8 139
+ 0.280174 1 2 tcp 1040 ------- 1 1.1 2.0 17 194
+ 0.280174 1 2 tcp 1040 ------- 1 1.1 2.0 18 195
r 0.280174 3 2 ack 40 ------- 1 3.0 2.1 8 140
+ 0.280174 2 3 tcp 1040 ------- 1 2.1 3.0 17 196
+ 0.280174 2 3 tcp 1040 ------- 1 2.1 3.0 18 197
r 0.280174 4 3 ack 40 ------- 1 4.0 3.1 8 141
+ 0.280174 3 4 tcp 1040 ------- 1 3.1 4.0 17 198
+ 0.280174 3 4 tcp 1040 ------- 1 3.1 4.0 18 199
r 0.280174 5 4 ack 40 ------- 1 5.0 4.1 8 142
+ 0.280174 4 5 tcp 1040 ------- 1 4.1 5.0 17 200
+ 0.280174 4 5 tcp 1040 ------- 1 4.1 5.0 18 201
r 0.280174 0 5 ack 40 ------- 1 0.1 5.1 8 143
+ 0.280174 5 0 tcp 1040 ------- 1 5.1 0.1 17 202
+ 0.280174 5 0 tcp 1040 ------- 1 5.1 0.1 18 203
- 0.280174 0 1 tcp 1040 ------- 1 0.0 1.0 16 181
- 0.280174 1 2 tcp 1040 ------- 1 1.1 2.0 16 183
- 0.280174 2 3 tcp 1040 ------- 1 2.1 3.0 16 185
- 0.280174 3 4 tcp 1040 ------- 1 3.1 4.0 16 187
- 0.280174 4 5 tcp 1040 ------- 1 4.1 5.0 16 189
- 0.280174 5 0 tcp 1040 ------- 1 5.1 0.1 16 191
r 0.280216 1 0 ack 40 ------- 1 1.0 0.0 9 144
+ 0.280216 0 1 tcp 1040 ------- 1 0.0 1.0 19 204
+ 0.280216 0 1 tcp 1040 ------- 1 0.0 1.0 20 205
r 0.280216 2 1 ack 40 ------- 1 2.0 1.1 9 145
+ 0.280216 1 2 tcp 1040 ------- 1 1.1 2.0 19 206
+ 0.280216 1 2 tcp 1040 ------- 1 1.1 2.0 20 207
r 0.280216 3 2 ack 40 ------- 1 3.0 2.1 9 146
+ 0.280216 2 3 tcp 1040 ------- 1 2.1 3.0 19 208
+ 0.280216 2 3 tcp 1040 ------- 1 2.1 3.0 20 209
r 0.280216 4 3 ack 40 ------- 1 4.0 3.1 9 147
+ 0.280216 3 4 tcp 1040 ------- 1 3.1 4.0 19 210
+ 0.280216 3 4 tcp 1040 ------- 1 3.1 4.0 20 211
r 0.280216 5 4 ack 40 ------- 1 5.0 4.1 9 148
+ 0.280216 4 5 tcp 1040 ------- 1 4.1 5.0 19 212
+ 0.280216 4 5 tcp 1040 ------- 1 4.1 5.0 20 213
r 0.280216 0 5 ack 40 ------- 1 0.1 5.1 9 149
+ 0.280216 5 0 tcp 1040 ------- 1 5.1 0.1 19 214
+ 0.280216 5 0 tcp 1040 ------- 1 5.1 0.1 20 215
- 0.280216 0 1 tcp 1040 ------- 1 0.0 1.0 17 192
- 0.280216 1 2 tcp 1040 ------- 1 1.1 2.0 17 194
- 0.280216 2 3 tcp 1040 ------- 1 2.1 3.0 17 196
- 0.280216 3 4 tcp 1040 ------- 1 3.1 4.0 17 198
- 0.280216 4 5 tcp 1040 ------- 1 4.1 5.0 17 200
- 0.280216 5 0 tcp 1040 ------- 1 5.1 0.1 17 202
r 0.280258 1 0 ack 40 ------- 1 1.0 0.0 10 150
+ 0.280258 0 1 tcp 1040 ------- 1 0.0 1.0 21 216
+ 0.280258 0 1 tcp 1040 ------- 1 0.0 1.0 22 217
d 0.280258 0 1 tcp 1040 ------- 1 0.0 1.0 22 217
r 0.280258 2 1 ack 40 ------- 1 2.0 1.1 10 151
+ 0.280258 1 2 tcp 1040 ------- 1 1.1 2.0 21 218
+ 0.280258 1 2 tcp 1040 ------- 1 1.1 2.0 22 219
d 0.280258 1 2 tcp 1040 ------- 1 1.1 2.0 22 219
r 0.280258 3 2 ack 40 ------- 1 3.0 2.1 10 152
+ 0.280258 2 3 tcp 1040 ------- 1 2.1 3.0 21 220
+ 0.280258 2 3 tcp 1040 ------- 1 2.1 3.0 22 221
d 0.280258 2 3 tcp 1040 ------- 1 2.1 3.0 22 221
r 0.280258 4 3 ack 40 ------- 1 4.0 3.1 10 153
+ 0.280258 3 4 tcp 1040 ------- 1 3.1 4.0 21 222
+ 0.280258 3 4 tcp 1040 ------- 1 3.1 4.0 22 223
d 0.280258 3 4 tcp 1040 ------- 1 3.1 4.0 22 223
r 0.280258 5 4 ack 40 ------- 1 5.0 4.1 10 154
+ 0.280258 4 5 tcp 1040 ------- 1 4.1 5.0 21 224
+ 0.280258 4 5 tcp 1040 ------- 1 4.1 5.0 22 225
d 0.280258 4 5 tcp 1040 ------- 1 4.1 5.0 22 225
r 0.280258 0 5 ack 40 ------- 1 0.1 5.1 10 155
+ 0.280258 5 0 tcp 1040 ------- 1 5.1 0.1 21 226
+ 0.280258 5 0 tcp 1040 ------- 1 5.1 0.1 22 227
d 0.280258 5 0 tcp 1040 ------- 1 5.1 0.1 22 227
- 0.280258 0 1 tcp 1040 ------- 1 0.0 1.0 18 193
- 0.280258 1 2 tcp 1040 ------- 1 1.1 2.0 18 195
- 0.280258 2 3 tcp 1040 ------- 1 2.1 3.0 18 197
- 0.280258 3 4 tcp 1040 ------- 1 3.1 4.0 18 199
- 0.280258 4 5 tcp 1040 ------- 1 4.1 5.0 18 201
- 0.280258 5 0 tcp 1040 ------- 1 5.1 0.1 18 203
r 0.280299 1 0 ack 40 ------- 1 1.0 0.0 11 156
+ 0.280299 0 1 tcp 1040 ------- 1 0.0 1.0 23 228
+ 0.280299 0 1 tcp 1040 ------- 1 0.0 1.0 24 229
d 0.280299 0 1 tcp 1040 ------- 1 0.0 1.0 24 229
r 0.280299 2 1 ack 40 ------- 1 2.0 1.1 11 157
+ 0.280299 1 2 tcp 1040 ------- 1 1.1 2.0 23 230
+ 0.280299 1 2 tcp 1040 ------- 1 1.1 2.0 24 231
d 0.280299 1 2 tcp 1040 ------- 1 1.1 2.0 24 231
r 0.280299 3 2 ack 40 ------- 1 3.0 2.1 11 158
+ 0.280299 2 3 tcp 1040 ------- 1 2.1 3.0 23 232
+ 0.280299 2 3 tcp 1040 ------- 1 2.1 3.0 24 233
d 0.280299 2 3 tcp 1040 ------- 1 2.1 3.0 24 233
r 0.280299 4 3 ack 40 ------- 1 4.0 3.1 11 159
+ 0.280299 3 4 tcp 1040 ------- 1 3.1 4.0 23 234
+ 0.280299 3 4 tcp 1040 ------- 1 3.1 4.0 24 235
d 0.280299 3 4 tcp 1040 ------- 1 3.1 4.0 24 235
r 0.280299 5 4 ack 40 ------- 1 5.0 4.1 11 160
+ 0.280299 4 5 tcp 1040 ------- 1 4.1 5.0 23 236
+ 0.280299 4 5 tcp 1040 ------- 1 4.1 5.0 24 237
d 0.280299 4 5 tcp 1040 ------- 1 4.1 5.0 24 237
r 0.280299 0 5 ack 40 ------- 1 0.1 5.1 11 161
+ 0.280299 5 0 tcp 1040 ------- 1 5.1 0.1 23 238
+ 0.280299 5 0 tcp 1040 ------- 1 5.1 0.1 24 239
d 0.280299 5 0 tcp 1040 ------- 1 5.1 0.1 24 239
- 0.280299 0 1 tcp 1040 ------- 1 0.0 1.0 19 204
- 0.280299 1 2 tcp 1040 ------- 1 1.1 2.0 19 206
- 0.280299 2 3 tcp 1040 ------- 1 2.1 3.0 19 208
- 0.280299 3 4 tcp 1040 ------- 1 3.1 4.0 19 210
- 0.280299 4 5 tcp 1040 ------- 1 4.1 5.0 19 212
- 0.280299 5 0 tcp 1040 ------- 1 5.1 0.1 19 214
r 0.280341 1 0 ack 40 ------- 1 1.0 0.0 12 162
+ 0.280341 0 1 tcp 1040 ------- 1 0.0 1.0 25 240
+ 0.280341 0 1 tcp 1040 ------- 1 0.0 1.0 26 241
d 0.280341 0 1 tcp 1040 ------- 1 0.0 1.0 26 241
r 0.280341 2 1 ack 40 ------- 1 2.0 1.1 12 163
+ 0.280341 1 2 tcp 1040 ------- 1 1.1 2.0 25 242
+ 0.280341 1 2 tcp 1040 ------- 1 1.1 2.0 26 243
d 0.280341 1 2 tcp 1040 ------- 1 1.1 2.0 26 243
r 0.280341 3 2 ack 40 ------- 1 3.0 2.1 12 164
+ 0.280341 2 3 tcp 1040 ------- 1 2.1 3.0 25 244
+ 0.280341 2 3 tcp 1040 ------- 1 2.1 3.0 26 245
d 0.280341 2 3 tcp 1040 ------- 1 2.1 3.0 26 245
r 0.280341 4 3 ack 40 ------- 1 4.0 3.1 12 165
+ 0.280341 3 4 tcp 1040 ------- 1 3.1 4.0 25 246
+ 0.280341 3 4 tcp 1040 ------- 1 3.1 4.0 26 247