+ 0.2 0 1 tcp 40 ------- 1 0.0 1.0 0 0
- 0.2 0 1 tcp 40 ------- 1 0.0 1.0 0 0
+ 0.2 1 2 tcp 40 ------- 1 1.1 2.0 0 1
- 0.2 1 2 tcp 40 ------- 1 1.1 2.0 0 1
+ 0.2 2 3 tcp 40 ------- 1 2.1 3.0 0 2
- 0.2 2 3 tcp 40 ------- 1 2.1 3.0 0 2
+ 0.2 3 4 tcp 40 ------- 1 3.1 4.0 0 3
- 0.2 3 4 tcp 40 ------- 1 3.1 4.0 0 3
+ 0.2 4 5 tcp 40 ------- 1 4.1 5.0 0 4
- 0.2 4 5 tcp 40 ------- 1 4.1 5.0 0 4
+ 0.2 5 0 tcp 40 ------- 1 5.1 0.1 0 5
- 0.2 5 0 tcp 40 ------- 1 5.1 0.1 0 5
r 0.210032 0 1 tcp 40 ------- 1 0.0 1.0 0 0
+ 0.210032 1 0 ack 40 ------- 1 1.0 0.0 0 6
- 0.210032 1 0 ack 40 ------- 1 1.0 0.0 0 6
r 0.210032 1 2 tcp 40 ------- 1 1.1 2.0 0 1
+ 0.210032 2 1 ack 40 ------- 1 2.0 1.1 0 7
- 0.210032 2 1 ack 40 ------- 1 2.0 1.1 0 7
r 0.210032 2 3 tcp 40 ------- 1 2.1 3.0 0 2
+ 0.210032 3 2 ack 40 ------- 1 3.0 2.1 0 8
- 0.210032 3 2 ack 40 ------- 1 3.0 2.1 0 8
r 0.210032 3 4 tcp 40 ------- 1 3.1 4.0 0 3
+ 0.210032 4 3 ack 40 ------- 1 4.0 3.1 0 9
- 0.210032 4 3 ack 40 ------- 1 4.0 3.1 0 9
r 0.210032 4 5 tcp 40 ------- 1 4.1 5.0 0 4
+ 0.210032 5 4 ack 40 ------- 1 5.0 4.1 0 10
- 0.210032 5 4 ack 40 ------- 1 5.0 4.1 0 10
r 0.210032 5 0 tcp 40 ------- 1 5.1 0.1 0 5
+ 0.210032 0 5 ack 40 ------- 1 0.1 5.1 0 11
- 0.210032 0 5 ack 40 ------- 1 0.1 5.1 0 11
r 0.220064 1 0 ack 40 ------- 1 1.0 0.0 0 6
+ 0.220064 0 1 tcp 1040 ------- 1 0.0 1.0 1 12
- 0.220064 0 1 tcp 1040 ------- 1 0.0 1.0 1 12
+ 0.220064 0 1 tcp 1040 ------- 1 0.0 1.0 2 13
r 0.220064 2 1 ack 40 ------- 1 2.0 1.1 0 7
+ 0.220064 1 2 tcp 1040 ------- 1 1.1 2.0 1 14
- 0.220064 1 2 tcp 1040 ------- 1 1.1 2.0 1 14
+ 0.220064 1 2 tcp 1040 ------- 1 1.1 2.0 2 15
r 0.220064 3 2 ack 40 ------- 1 3.0 2.1 0 8
+ 0.220064 2 3 tcp 1040 ------- 1 2.1 3.0 1 16
- 0.220064 2 3 tcp 1040 ------- 1 2.1 3.0 1 16
+ 0.220064 2 3 tcp 1040 ------- 1 2.1 3.0 2 17
r 0.220064 4 3 ack 40 ------- 1 4.0 3.1 0 9
+ 0.220064 3 4 tcp 1040 ------- 1 3.1 4.0 1 18
- 0.220064 3 4 tcp 1040 ------- 1 3.1 4.0 1 18
+ 0.220064 3 4 tcp 1040 ------- 1 3.1 4.0 2 19
r 0.220064 5 4 ack 40 ------- 1 5.0 4.1 0 10
+ 0.220064 4 5 tcp 1040 ------- 1 4.1 5.0 1 20
- 0.220064 4 5 tcp 1040 ------- 1 4.1 5.0 1 20
+ 0.220064 4 5 tcp 1040 ------- 1 4.1 5.0 2 21
r 0.220064 0 5 ack 40 ------- 1 0.1 5.1 0 11
+ 0.220064 5 0 tcp 1040 ------- 1 5.1 0.1 1 22
- 0.220064 5 0 tcp 1040 ------- 1 5.1 0.1 1 22
+ 0.220064 5 0 tcp 1040 ------- 1 5.1 0.1 2 23
- 0.220896 0 1 tcp 1040 ------- 1 0.0 1.0 2 13
- 0.220896 1 2 tcp 1040 ------- 1 1.1 2.0 2 15
- 0.220896 2 3 tcp 1040 ------- 1 2.1 3.0 2 17
- 0.220896 3 4 tcp 1040 ------- 1 3.1 4.0 2 19
- 0.220896 4 5 tcp 1040 ------- 1 4.1 5.0 2 21
- 0.220896 5 0 tcp 1040 ------- 1 5.1 0.1 2 23
r 0.230896 0 1 tcp 1040 ------- 1 0.0 1.0 1 12
+ 0.230896 1 0 ack 40 ------- 1 1.0 0.0 1 24
- 0.230896 1 0 ack 40 ------- 1 1.0 0.0 1 24
r 0.230896 1 2 tcp 1040 ------- 1 1.1 2.0 1 14
+ 0.230896 2 1 ack 40 ------- 1 2.0 1.1 1 25
- 0.230896 2 1 ack 40 ------- 1 2.0 1.1 1 25
r 0.230896 2 3 tcp 1040 ------- 1 2.1 3.0 1 16
+ 0.230896 3 2 ack 40 ------- 1 3.0 2.1 1 26
- 0.230896 3 2 ack 40 ------- 1 3.0 2.1 1 26
r 0.230896 3 4 tcp 1040 ------- 1 3.1 4.0 1 18
+ 0.230896 4 3 ack 40 ------- 1 4.0 3.1 1 27
- 0.230896 4 3 ack 40 ------- 1 4.0 3.1 1 27
r 0.230896 4 5 tcp 1040 ------- 1 4.1 5.0 1 20
+ 0.230896 5 4 ack 40 ------- 1 5.0 4.1 1 28
- 0.230896 5 4 ack 40 ------- 1 5.0 4.1 1 28
r 0.230896 5 0 tcp 1040 ------- 1 5.1 0.1 1 22
+ 0.230896 0 5 ack 40 ------- 1 0.1 5.1 1 29
- 0.230896 0 5 ack 40 ------- 1 0.1 5.1 1 29
r 0.231728 0 1 tcp 1040 ------- 1 0.0 1.0 2 13
+ 0.231728 1 0 ack 40 ------- 1 1.0 0.0 2 30
- 0.231728 1 0 ack 40 ------- 1 1.0 0.0 2 30
r 0.231728 1 2 tcp 1040 ------- 1 1.1 2.0 2 15
+ 0.231728 2 1 ack 40 ------- 1 2.0 1.1 2 31
- 0.231728 2 1 ack 40 ------- 1 2.0 1.1 2 31
r 0.231728 2 3 tcp 1040 ------- 1 2.1 3.0 2 17
+ 0.231728 3 2 ack 40 ------- 1 3.0 2.1 2 32
- 0.231728 3 2 ack 40 ------- 1 3.0 2.1 2 32
r 0.231728 3 4 tcp 1040 ------- 1 3.1 4.0 2 19
+ 0.231728 4 3 ack 40 ------- 1 4.0 3.1 2 33
- 0.231728 4 3 ack 40 ------- 1 4.0 3.1 2 33
r 0.231728 4 5 tcp 1040 ------- 1 4.1 5.0 2 21
+ 0.231728 5 4 ack 40 ------- 1 5.0 4.1 2 34
- 0.231728 5 4 ack 40 ------- 1 5.0 4.1 2 34
r 0.231728 5 0 tcp 1040 ------- 1 5.1 0.1 2 23
+ 0.231728 0 5 ack 40 ------- 1 0.1 5.1 2 35
- 0.231728 0 5 ack 40 ------- 1 0.1 5.1 2 35
r 0.240928 1 0 ack 40 ------- 1 1.0 0.0 1 24
+ 0.240928 0 1 tcp 1040 ------- 1 0.0 1.0 3 36
- 0.240928 0 1 tcp 1040 ------- 1 0.0 1.0 3 36
+ 0.240928 0 1 tcp 1040 ------- 1 0.0 1.0 4 37
r 0.240928 2 1 ack 40 ------- 1 2.0 1.1 1 25
+ 0.240928 1 2 tcp 1040 ------- 1 1.1 2.0 3 38
- 0.240928 1 2 tcp 1040 ------- 1 1.1 2.0 3 38
+ 0.240928 1 2 tcp 1040 ------- 1 1.1 2.0 4 39
r 0.240928 3 2 ack 40 ------- 1 3.0 2.1 1 26
+ 0.240928 2 3 tcp 1040 ------- 1 2.1 3.0 3 40
- 0.240928 2 3 tcp 1040 ------- 1 2.1 3.0 3 40
+ 0.240928 2 3 tcp 1040 ------- 1 2.1 3.0 4 41
r 0.240928 4 3 ack 40 ------- 1 4.0 3.1 1 27
+ 0.240928 3 4 tcp 1040 ------- 1 3.1 4.0 3 42
- 0.240928 3 4 tcp 1040 ------- 1 3.1 4.0 3 42
+ 0.240928 3 4 tcp 1040 ------- 1 3.1 4.0 4 43
r 0.240928 5 4 ack 40 ------- 1 5.0 4.1 1 28
+ 0.240928 4 5 tcp 1040 ------- 1 4.1 5.0 3 44
- 0.240928 4 5 tcp 1040 ------- 1 4.1 5.0 3 44
+ 0.240928 4 5 tcp 1040 ------- 1 4.1 5.0 4 45
r 0.240928 0 5 ack 40 ------- 1 0.1 5.1 1 29
+ 0.240928 5 0 tcp 1040 ------- 1 5.1 0.1 3 46
- 0.240928 5 0 tcp 1040 ------- 1 5.1 0.1 3 46
+ 0.240928 5 0 tcp 1040 ------- 1 5.1 0.1 4 47
r 0.24176 1 0 ack 40 ------- 1 1.0 0.0 2 30
+ 0.24176 0 1 tcp 1040 ------- 1 0.0 1.0 5 48
+ 0.24176 0 1 tcp 1040 ------- 1 0.0 1.0 6 49
r 0.24176 2 1 ack 40 ------- 1 2.0 1.1 2 31
+ 0.24176 1 2 tcp 1040 ------- 1 1.1 2.0 5 50
+ 0.24176 1 2 tcp 1040 ------- 1 1.1 2.0 6 51
r 0.24176 3 2 ack 40 ------- 1 3.0 2.1 2 32
+ 0.24176 2 3 tcp 1040 ------- 1 2.1 3.0 5 52
+ 0.24176 2 3 tcp 1040 ------- 1 2.1 3.0 6 53
r 0.24176 4 3 ack 40 ------- 1 4.0 3.1 2 33
+ 0.24176 3 4 tcp 1040 ------- 1 3.1 4.0 5 54
+ 0.24176 3 4 tcp 1040 ------- 1 3.1 4.0 6 55
r 0.24176 5 4 ack 40 ------- 1 5.0 4.1 2 34
+ 0.24176 4 5 tcp 1040 ------- 1 4.1 5.0 5 56
+ 0.24176 4 5 tcp 1040 ------- 1 4.1 5.0 6 57
r 0.24176 0 5 ack 40 ------- 1 0.1 5.1 2 35
+ 0.24176 5 0 tcp 1040 ------- 1 5.1 0.1 5 58
+ 0.24176 5 0 tcp 1040 ------- 1 5.1 0.1 6 59
- 0.24176 0 1 tcp 1040 ------- 1 0.0 1.0 4 37
- 0.24176 1 2 tcp 1040 ------- 1 1.1 2.0 4 39
- 0.24176 2 3 tcp 1040 ------- 1 2.1 3.0 4 41
- 0.24176 3 4 tcp 1040 ------- 1 3.1 4.0 4 43
- 0.24176 4 5 tcp 1040 ------- 1 4.1 5.0 4 45
- 0.24176 5 0 tcp 1040 ------- 1 5.1 0.1 4 47
- 0.242592 0 1 tcp 1040 ------- 1 0.0 1.0 5 48
- 0.242592 1 2 tcp 1040 ------- 1 1.1 2.0 5 50
- 0.242592 2 3 tcp 1040 ------- 1 2.1 3.0 5 52
- 0.242592 3 4 tcp 1040 ------- 1 3.1 4.0 5 54
- 0.242592 4 5 tcp 1040 ------- 1 4.1 5.0 5 56
- 0.242592 5 0 tcp 1040 ------- 1 5.1 0.1 5 58
- 0.243424 0 1 tcp 1040 ------- 1 0.0 1.0 6 49
- 0.243424 1 2 tcp 1040 ------- 1 1.1 2.0 6 51
- 0.243424 2 3 tcp 1040 ------- 1 2.1 3.0 6 53
- 0.243424 3 4 tcp 1040 ------- 1 3.1 4.0 6 55
- 0.243424 4 5 tcp 1040 ------- 1 4.1 5.0 6 57
- 0.243424 5 0 tcp 1040 ------- 1 5.1 0.1 6 59
r 0.25176 0 1 tcp 1040 ------- 1 0.0 1.0 3 36
+ 0.25176 1 0 ack 40 ------- 1 1.0 0.0 3 60
- 0.25176 1 0 ack 40 ------- 1 1.0 0.0 3 60
r 0.25176 1 2 tcp 1040 ------- 1 1.1 2.0 3 38
+ 0.25176 2 1 ack 40 ------- 1 2.0 1.1 3 61
- 0.25176 2 1 ack 40 ------- 1 2.0 1.1 3 61
r 0.25176 2 3 tcp 1040 ------- 1 2.1 3.0 3 40
+ 0.25176 3 2 ack 40 ------- 1 3.0 2.1 3 62
- 0.25176 3 2 ack 40 ------- 1 3.0 2.1 3 62
r 0.25176 3 4 tcp 1040 ------- 1 3.1 4.0 3 42
+ 0.25176 4 3 ack 40 ------- 1 4.0 3.1 3 63
- 0.25176 4 3 ack 40 ------- 1 4.0 3.1 3 63
r 0.25176 4 5 tcp 1040 ------- 1 4.1 5.0 3 44
+ 0.25176 5 4 ack 40 ------- 1 5.0 4.1 3 64
- 0.25176 5 4 ack 40 ------- 1 5.0 4.1 3 64
r 0.25176 5 0 tcp 1040 ------- 1 5.1 0.1 3 46
+ 0.25176 0 5 ack 40 ------- 1 0.1 5.1 3 65
- 0.25176 0 5 ack 40 ------- 1 0.1 5.1 3 65
r 0.252592 0 1 tcp 1040 ------- 1 0.0 1.0 4 37
+ 0.252592 1 0 ack 40 ------- 1 1.0 0.0 4 66
- 0.252592 1 0 ack 40 ------- 1 1.0 0.0 4 66
r 0.252592 1 2 tcp 1040 ------- 1 1.1 2.0 4 39
+ 0.252592 2 1 ack 40 ------- 1 2.0 1.1 4 67
- 0.252592 2 1 ack 40 ------- 1 2.0 1.1 4 67
r 0.252592 2 3 tcp 1040 ------- 1 2.1 3.0 4 41
+ 0.252592 3 2 ack 40 ------- 1 3.0 2.1 4 68
- 0.252592 3 2 ack 40 ------- 1 3.0 2.1 4 68
r 0.252592 3 4 tcp 1040 ------- 1 3.1 4.0 4 43
+ 0.252592 4 3 ack 40 ------- 1 4.0 3.1 4 69
- 0.252592 4 3 ack 40 ------- 1 4.0 3.1 4 69
r 0.252592 4 5 tcp 1040 ------- 1 4.1 5.0 4 45
+ 0.252592 5 4 ack 40 ------- 1 5.0 4.1 4 70
- 0.252592 5 4 ack 40 ------- 1 5.0 4.1 4 70
r 0.252592 5 0 tcp 1040 ------- 1 5.1 0.1 4 47
+ 0.252592 0 5 ack 40 ------- 1 0.1 5.1 4 71
- 0.252592 0 5 ack 40 ------- 1 0.1 5.1 4 71
r 0.253424 0 1 tcp 1040 ------- 1 0.0 1.0 5 48
+ 0.253424 1 0 ack 40 ------- 1 1.0 0.0 5 72
- 0.253424 1 0 ack 40 ------- 1 1.0 0.0 5 72
r 0.253424 1 2 tcp 1040 ------- 1 1.1 2.0 5 50
+ 0.253424 2 1 ack 40 ------- 1 2.0 1.1 5 73
- 0.253424 2 1 ack 40 ------- 1 2.0 1.1 5 73
r 0.253424 2 3 tcp 1040 ------- 1 2.1 3.0 5 52
+ 0.253424 3 2 ack 40 ------- 1 3.0 2.1 5 74
- 0.253424 3 2 ack 40 ------- 1 3.0 2.1 5 74
r 0.253424 3 4 tcp 1040 ------- 1 3.1 4.0 5 54
+ 0.253424 4 3 ack 40 ------- 1 4.0 3.1 5 75
- 0.253424 4 3 ack 40 ------- 1 4.0 3.1 5 75
r 0.253424 4 5 tcp 1040 ------- 1 4.1 5.0 5 56
+ 0.253424 5 4 ack 40 ------- 1 5.0 4.1 5 76
- 0.253424 5 4 ack 40 ------- 1 5.0 4.1 5 76
r 0.253424 5 0 tcp 1040 ------- 1 5.1 0.1 5 58
+ 0.253424 0 5 ack 40 ------- 1 0.1 5.1 5 77
- 0.253424 0 5 ack 40 ------- 1 0.1 5.1 5 77
r 0.254256 0 1 tcp 1040 ------- 1 0.0 1.0 6 49
+ 0.254256 1 0 ack 40 ------- 1 1.0 0.0 6 78
- 0.254256 1 0 ack 40 ------- 1 1.0 0.0 6 78
r 0.254256 1 2 tcp 1040 ------- 1 1.1 2.0 6 51
+ 0.254256 2 1 ack 40 ------- 1 2.0 1.1 6 79
- 0.254256 2 1 ack 40 ------- 1 2.0 1.1 6 79
r 0.254256 2 3 tcp 1040 ------- 1 2.1 3.0 6 53
+ 0.254256 3 2 ack 40 ------- 1 3.0 2.1 6 80
- 0.254256 3 2 ack 40 ------- 1 3.0 2.1 6 80
r 0.254256 3 4 tcp 1040 ------- 1 3.1 4.0 6 55
+ 0.254256 4 3 ack 40 ------- 1 4.0 3.1 6 81
- 0.254256 4 3 ack 40 ------- 1 4.0 3.1 6 81
r 0.254256 4 5 tcp 1040 ------- 1 4.1 5.0 6 57
+ 0.254256 5 4 ack 40 ------- 1 5.0 4.1 6 82
- 0.254256 5 4 ack 40 ------- 1 5.0 4.1 6 82
r 0.254256 5 0 tcp 1040 ------- 1 5.1 0.1 6 59
+ 0.254256 0 5 ack 40 ------- 1 0.1 5.1 6 83
- 0.254256 0 5 ack 40 ------- 1 0.1 5.1 6 83
r 0.261792 1 0 ack 40 ------- 1 1.0 0.0 3 60
+ 0.261792 0 1 tcp 1040 ------- 1 0.0 1.0 7 84
- 0.261792 0 1 tcp 1040 ------- 1 0.0 1.0 7 84
+ 0.261792 0 1 tcp 1040 ------- 1 0.0 1.0 8 85
r 0.261792 2 1 ack 40 ------- 1 2.0 1.1 3 61
+ 0.261792 1 2 tcp 1040 ------- 1 1.1 2.0 7 86
- 0.261792 1 2 tcp 1040 ------- 1 1.1 2.0 7 86
+ 0.261792 1 2 tcp 1040 ------- 1 1.1 2.0 8 87
r 0.261792 3 2 ack 40 ------- 1 3.0 2.1 3 62
+ 0.261792 2 3 tcp 1040 ------- 1 2.1 3.0 7 88
- 0.261792 2 3 tcp 1040 ------- 1 2.1 3.0 7 88
+ 0.261792 2 3 tcp 1040 ------- 1 2.1 3.0 8 89
r 0.261792 4 3 ack 40 ------- 1 4.0 3.1 3 63
+ 0.261792 3 4 tcp 1040 ------- 1 3.1 4.0 7 90
- 0.261792 3 4 tcp 1040 ------- 1 3.1 4.0 7 90
+ 0.261792 3 4 tcp 1040 ------- 1 3.1 4.0 8 91
r 0.261792 5 4 ack 40 ------- 1 5.0 4.1 3 64
+ 0.261792 4 5 tcp 1040 ------- 1 4.1 5.0 7 92
- 0.261792 4 5 tcp 1040 ------- 1 4.1 5.0 7 92
+ 0.261792 4 5 tcp 1040 ------- 1 4.1 5.0 8 93
r 0.261792 0 5 ack 40 ------- 1 0.1 5.1 3 65
+ 0.261792 5 0 tcp 1040 ------- 1 5.1 0.1 7 94
- 0.261792 5 0 tcp 1040 ------- 1 5.1 0.1 7 94
+ 0.261792 5 0 tcp 1040 ------- 1 5.1 0.1 8 95
r 0.262624 1 0 ack 40 ------- 1 1.0 0.0 4 66
+ 0.262624 0 1 tcp 1040 ------- 1 0.0 1.0 9 96
+ 0.262624 0 1 tcp 1040 ------- 1 0.0 1.0 10 97
r 0.262624 2 1 ack 40 ------- 1 2.0 1.1 4 67
+ 0.262624 1 2 tcp 1040 ------- 1 1.1 2.0 9 98
+ 0.262624 1 2 tcp 1040 ------- 1 1.1 2.0 10 99
r 0.262624 3 2 ack 40 ------- 1 3.0 2.1 4 68
+ 0.262624 2 3 tcp 1040 ------- 1 2.1 3.0 9 100
+ 0.262624 2 3 tcp 1040 ------- 1 2.1 3.0 10 101
r 0.262624 4 3 ack 40 ------- 1 4.0 3.1 4 69
+ 0.262624 3 4 tcp 1040 ------- 1 3.1 4.0 9 102
+ 0.262624 3 4 tcp 1040 ------- 1 3.1 4.0 10 103
r 0.262624 5 4 ack 40 ------- 1 5.0 4.1 4 70
+ 0.262624 4 5 tcp 1040 ------- 1 4.1 5.0 9 104
+ 0.262624 4 5 tcp 1040 ------- 1 4.1 5.0 10 105
r 0.262624 0 5 ack 40 ------- 1 0.1 5.1 4 71
+ 0.262624 5 0 tcp 1040 ------- 1 5.1 0.1 9 106
+ 0.262624 5 0 tcp 1040 ------- 1 5.1 0.1 10 107
- 0.262624 0 1 tcp 1040 ------- 1 0.0 1.0 8 85
- 0.262624 1 2 tcp 1040 ------- 1 1.1 2.0 8 87
- 0.262624 2 3 tcp 1040 ------- 1 2.1 3.0 8 89
- 0.262624 3 4 tcp 1040 ------- 1 3.1 4.0 8 91
- 0.262624 4 5 tcp 1040 ------- 1 4.1 5.0 8 93
- 0.262624 5 0 tcp 1040 ------- 1 5.1 0.1 8 95
r 0.263456 1 0 ack 40 ------- 1 1.0 0.0 5 72
+ 0.263456 0 1 tcp 1040 ------- 1 0.0 1.0 11 108
+ 0.263456 0 1 tcp 1040 ------- 1 0.0 1.0 12 109
r 0.263456 2 1 ack 40 ------- 1 2.0 1.1 5 73
+ 0.263456 1 2 tcp 1040 ------- 1 1.1 2.0 11 110
+ 0.263456 1 2 tcp 1040 ------- 1 1.1 2.0 12 111
r 0.263456 3 2 ack 40 ------- 1 3.0 2.1 5 74
+ 0.263456 2 3 tcp 1040 ------- 1 2.1 3.0 11 112
+ 0.263456 2 3 tcp 1040 ------- 1 2.1 3.0 12 113
r 0.263456 4 3 ack 40 ------- 1 4.0 3.1 5 75
+ 0.263456 3 4 tcp 1040 ------- 1 3.1 4.0 11 114
+ 0.263456 3 4 tcp 1040 ------- 1 3.1 4.0 12 115
r 0.263456 5 4 ack 40 ------- 1 5.0 4.1 5 76
+ 0.263456 4 5 tcp 1040 ------- 1 4.1 5.0 11 116
+ 0.263456 4 5 tcp 1040 ------- 1 4.1 5.0 12 117
r 0.263456 0 5 ack 40 ------- 1 0.1 5.1 5 77
+ 0.263456 5 0 tcp 1040 ------- 1 5.1 0.1 11 118
+ 0.263456 5 0 tcp 1040 ------- 1 5.1 0.1 12 119
- 0.263456 0 1 tcp 1040 ------- 1 0.0 1.0 9 96
- 0.263456 1 2 tcp 1040 ------- 1 1.1 2.0 9 98
- 0.263456 2 3 tcp 1040 ------- 1 2.1 3.0 9 100
- 0.263456 3 4 tcp 1040 ------- 1 3.1 4.0 9 102
- 0.263456 4 5 tcp 1040 ------- 1 4.1 5.0 9 104
- 0.263456 5 0 tcp 1040 ------- 1 5.1 0.1 9 106
r 0.264288 1 0 ack 40 ------- 1 1.0 0.0 6 78
+ 0.264288 0 1 tcp 1040 ------- 1 0.0 1.0 13 120
+ 0.264288 0 1 tcp 1040 ------- 1 0.0 1.0 14 121
d 0.264288 0 1 tcp 1040 ------- 1 0.0 1.0 14 121
r 0.264288 2 1 ack 40 ------- 1 2.0 1.1 6 79
+ 0.264288 1 2 tcp 1040 ------- 1 1.1 2.0 13 122
+ 0.264288 1 2 tcp 1040 ------- 1 1.1 2.0 14 123
d 0.264288 1 2 tcp 1040 ------- 1 1.1 2.0 14 123
r 0.264288 3 2 ack 40 ------- 1 3.0 2.1 6 80
+ 0.264288 2 3 tcp 1040 ------- 1 2.1 3.0 13 124
+ 0.264288 2 3 tcp 1040 ------- 1 2.1 3.0 14 125
d 0.264288 2 3 tcp 1040 ------- 1 2.1 3.0 14 125
r 0.264288 4 3 ack 40 ------- 1 4.0 3.1 6 81
+ 0.264288 3 4 tcp 1040 ------- 1 3.1 4.0 13 126
+ 0.264288 3 4 tcp 1040 ------- 1 3.1 4.0 14 127
d 0.264288 3 4 tcp 1040 ------- 1 3.1 4.0 14 127
r 0.264288 5 4 ack 40 ------- 1 5.0 4.1 6 82
+ 0.264288 4 5 tcp 1040 ------- 1 4.1 5.0 13 128
+ 0.264288 4 5 tcp 1040 ------- 1 4.1 5.0 14 129
d 0.264288 4 5 tcp 1040 ------- 1 4.1 5.0 14 129
r 0.264288 0 5 ack 40 ------- 1 0.1 5.1 6 83
+ 0.264288 5 0 tcp 1040 ------- 1 5.1 0.1 13 130
+ 0.264288 5 0 tcp 1040 ------- 1 5.1 0.1 14 131
d 0.264288 5 0 tcp 1040 ------- 1 5.1 0.1 14 131
- 0.264288 0 1 tcp 1040 ------- 1 0.0 1.0 10 97
- 0.264288 1 2 tcp 1040 ------- 1 1.1 2.0 10 99
- 0.264288 2 3 tcp 1040 ------- 1 2.1 3.0 10 101
- 0.264288 3 4 tcp 1040 ------- 1 3.1 4.0 10 103
- 0.264288 4 5 tcp 1040 ------- 1 4.1 5.0 10 105
- 0.264288 5 0 tcp 1040 ------- 1 5.1 0.1 10 107
- 0.26512 0 1 tcp 1040 ------- 1 0.0 1.0 11 108
- 0.26512 1 2 tcp 1040 ------- 1 1.1 2.0 11 110
- 0.26512 2 3 tcp 1040 ------- 1 2.1 3.0 11 112
- 0.26512 3 4 tcp 1040 ------- 1 3.1 4.0 11 114
- 0.26512 4 5 tcp 1040 ------- 1 4.1 5.0 11 116
- 0.26512 5 0 tcp 1040 ------- 1 5.1 0.1 11 118
- 0.265952 0 1 tcp 1040 ------- 1 0.0 1.0 12 109
- 0.265952 1 2 tcp 1040 ------- 1 1.1 2.0 12 111
- 0.265952 2 3 tcp 1040 ------- 1 2.1 3.0 12 113
- 0.265952 3 4 tcp 1040 ------- 1 3.1 4.0 12 115
- 0.265952 4 5 tcp 1040 ------- 1 4.1 5.0 12 117
- 0.265952 5 0 tcp 1040 ------- 1 5.1 0.1 12 119
- 0.266784 0 1 tcp 1040 ------- 1 0.0 1.0 13 120
- 0.266784 1 2 tcp 1040 ------- 1 1.1 2.0 13 122
- 0.266784 2 3 tcp 1040 ------- 1 2.1 3.0 13 124
- 0.266784 3 4 tcp 1040 ------- 1 3.1 4.0 13 126
- 0.266784 4 5 tcp 1040 ------- 1 4.1 5.0 13 128
- 0.266784 5 0 tcp 1040 ------- 1 5.1 0.1 13 130
r 0.272624 0 1 tcp 1040 ------- 1 0.0 1.0 7 84
+ 0.272624 1 0 ack 40 ------- 1 1.0 0.0 7 132
- 0.272624 1 0 ack 40 ------- 1 1.0 0.0 7 132
r 0.272624 1 2 tcp 1040 ------- 1 1.1 2.0 7 86
+ 0.272624 2 1 ack 40 ------- 1 2.0 1.1 7 133
- 0.272624 2 1 ack 40 ------- 1 2.0 1.1 7 133
r 0.272624 2 3 tcp 1040 ------- 1 2.1 3.0 7 88
+ 0.272624 3 2 ack 40 ------- 1 3.0 2.1 7 134
- 0.272624 3 2 ack 40 ------- 1 3.0 2.1 7 134
r 0.272624 3 4 tcp 1040 ------- 1 3.1 4.0 7 90
+ 0.272624 4 3 ack 40 ------- 1 4.0 3.1 7 135
- 0.272624 4 3 ack 40 ------- 1 4.0 3.1 7 135
r 0.272624 4 5 tcp 1040 ------- 1 4.1 5.0 7 92
+ 0.272624 5 4 ack 40 ------- 1 5.0 4.1 7 136
- 0.272624 5 4 ack 40 ------- 1 5.0 4.1 7 136
r 0.272624 5 0 tcp 1040 ------- 1 5.1 0.1 7 94
+ 0.272624 0 5 ack 40 ------- 1 0.1 5.1 7 137
- 0.272624 0 5 ack 40 ------- 1 0.1 5.1 7 137
r 0.273456 0 1 tcp 1040 ------- 1 0.0 1.0 8 85
+ 0.273456 1 0 ack 40 ------- 1 1.0 0.0 8 138
- 0.273456 1 0 ack 40 ------- 1 1.0 0.0 8 138
r 0.273456 1 2 tcp 1040 ------- 1 1.1 2.0 8 87
+ 0.273456 2 1 ack 40 ------- 1 2.0 1.1 8 139
- 0.273456 2 1 ack 40 ------- 1 2.0 1.1 8 139
r 0.273456 2 3 tcp 1040 ------- 1 2.1 3.0 8 89
+ 0.273456 3 2 ack 40 ------- 1 3.0 2.1 8 140
- 0.273456 3 2 ack 40 ------- 1 3.0 2.1 8 140
r 0.273456 3 4 tcp 1040 ------- 1 3.1 4.0 8 91
+ 0.273456 4 3 ack 40 ------- 1 4.0 3.1 8 141
- 0.273456 4 3 ack 40 ------- 1 4.0 3.1 8 141
r 0.273456 4 5 tcp 1040 ------- 1 4.1 5.0 8 93
+ 0.273456 5 4 ack 40 ------- 1 5.0 4.1 8 142
- 0.273456 5 4 ack 40 ------- 1 5.0 4.1 8 142
r 0.273456 5 0 tcp 1040 ------- 1 5.1 0.1 8 95
+ 0.273456 0 5 ack 40 ------- 1 0.1 5.1 8 143
- 0.273456 0 5 ack 40 ------- 1 0.1 5.1 8 143
r 0.274288 0 1 tcp 1040 ------- 1 0.0 1.0 9 96
+ 0.274288 1 0 ack 40 ------- 1 1.0 0.0 9 144
- 0.274288 1 0 ack 40 ------- 1 1.0 0.0 9 144
r 0.274288 1 2 tcp 1040 ------- 1 1.1 2.0 9 98
+ 0.274288 2 1 ack 40 ------- 1 2.0 1.1 9 145
- 0.274288 2 1 ack 40 ------- 1 2.0 1.1 9 145
r 0.274288 2 3 tcp 1040 ------- 1 2.1 3.0 9 100
+ 0.274288 3 2 ack 40 ------- 1 3.0 2.1 9 146
- 0.274288 3 2 ack 40 ------- 1 3.0 2.1 9 146
r 0.274288 3 4 tcp 1040 ------- 1 3.1 4.0 9 102
+ 0.274288 4 3 ack 40 ------- 1 4.0 3.1 9 147
- 0.274288 4 3 ack 40 ------- 1 4.0 3.1 9 147
r 0.274288 4 5 tcp 1040 ------- 1 4.1 5.0 9 104
+ 0.274288 5 4 ack 40 ------- 1 5.0 4.1 9 148
- 0.274288 5 4 ack 40 ------- 1 5.0 4.1 9 148
r 0.274288 5 0 tcp 1040 ------- 1 5.1 0.1 9 106
+ 0.274288 0 5 ack 40 ------- 1 0.1 5.1 9 149
- 0.274288 0 5 ack 40 ------- 1 0.1 5.1 9 149
r 0.27512 0 1 tcp 1040 ------- 1 0.0 1.0 10 97
+ 0.27512 1 0 ack 40 ------- 1 1.0 0.0 10 150
- 0.27512 1 0 ack 40 ------- 1 1.0 0.0 10 150
r 0.27512 1 2 tcp 1040 ------- 1 1.1 2.0 10 99
+ 0.27512 2 1 ack 40 ------- 1 2.0 1.1 10 151
- 0.27512 2 1 ack 40 ------- 1 2.0 1.1 10 151
r 0.27512 2 3 tcp 1040 ------- 1 2.1 3.0 10 101
+ 0.27512 3 2 ack 40 ------- 1 3.0 2.1 10 152
- 0.27512 3 2 ack 40 ------- 1 3.0 2.1 10 152
r 0.27512 3 4 tcp 1040 ------- 1 3.1 4.0 10 103
+ 0.27512 4 3 ack 40 ------- 1 4.0 3.1 10 153
- 0.27512 4 3 ack 40 ------- 1 4.0 3.1 10 153
r 0.27512 4 5 tcp 1040 ------- 1 4.1 5.0 10 105
+ 0.27512 5 4 ack 40 ------- 1 5.0 4.1 10 154
- 0.27512 5 4 ack 40 ------- 1 5.0 4.1 10 154
r 0.27512 5 0 tcp 1040 ------- 1 5.1 0.1 10 107
+ 0.27512 0 5 ack 40 ------- 1 0.1 5.1 10 155
- 0.27512 0 5 ack 40 ------- 1 0.1 5.1 10 155
r 0.275952 0 1 tcp 1040 ------- 1 0.0 1.0 11 108
+ 0.275952 1 0 ack 40 ------- 1 1.0 0.0 11 156
- 0.275952 1 0 ack 40 ------- 1 1.0 0.0 11 156
r 0.275952 1 2 tcp 1040 ------- 1 1.1 2.0 11 110
+ 0.275952 2 1 ack 40 ------- 1 2.0 1.1 11 157
- 0.275952 2 1 ack 40 ------- 1 2.0 1.1 11 157
r 0.275952 2 3 tcp 1040 ------- 1 2.1 3.0 11 112
+ 0.275952 3 2 ack 40 ------- 1 3.0 2.1 11 158
- 0.275952 3 2 ack 40 ------- 1 3.0 2.1 11 158
r 0.275952 3 4 tcp 1040 ------- 1 3.1 4.0 11 114
+ 0.275952 4 3 ack 40 ------- 1 4.0 3.1 11 159
- 0.275952 4 3 ack 40 ------- 1 4.0 3.1 11 159
r 0.275952 4 5 tcp 1040 ------- 1 4.1 5.0 11 116
+ 0.275952 5 4 ack 40 ------- 1 5.0 4.1 11 160
- 0.275952 5 4 ack 40 ------- 1 5.0 4.1 11 160
r 0.275952 5 0 tcp 1040 ------- 1 5.1 0.1 11 118
+ 0.275952 0 5 ack 40 ------- 1 0.1 5.1 11 161
- 0.275952 0 5 ack 40 ------- 1 0.1 5.1 11 161
r 0.276784 0 1 tcp 1040 ------- 1 0.0 1.0 12 109
+ 0.276784 1 0 ack 40 ------- 1 1.0 0.0 12 162
- 0.276784 1 0 ack 40 ------- 1 1.0 0.0 12 162
r 0.276784 1 2 tcp 1040 ------- 1 1.1 2.0 12 111
+ 0.276784 2 1 ack 40 ------- 1 2.0 1.1 12 163
- 0.276784 2 1 ack 40 ------- 1 2.0 1.1 12 163
r 0.276784 2 3 tcp 1040 ------- 1 2.1 3.0 12 113
+ 0.276784 3 2 ack 40 ------- 1 3.0 2.1 12 164
- 0.276784 3 2 ack 40 ------- 1 3.0 2.1 12 164
r 0.276784 3 4 tcp 1040 ------- 1 3.1 4.0 12 115
+ 0.276784 4 3 ack 40 ------- 1 4.0 3.1 12 165
- 0.276784 4 3 ack 40 ------- 1 4.0 3.1 12 165
r 0.276784 4 5 tcp 1040 ------- 1 4.1 5.0 12 117
+ 0.276784 5 4 ack 40 ------- 1 5.0 4.1 12 166
- 0.276784 5 4 ack 40 ------- 1 5.0 4.1 12 166
r 0.276784 5 0 tcp 1040 ------- 1 5.1 0.1 12 119
+ 0.276784 0 5 ack 40 ------- 1 0.1 5.1 12 167
- 0.276784 0 5 ack 40 ------- 1 0.1 5.1 12 167
r 0.277616 0 1 tcp 1040 ------- 1 0.0 1.0 13 120
+ 0.277616 1 0 ack 40 ------- 1 1.0 0.0 13 168
- 0.277616 1 0 ack 40 ------- 1 1.0 0.0 13 168
r 0.277616 1 2 tcp 1040 ------- 1 1.1 2.0 13 122
+ 0.277616 2 1 ack 40 ------- 1 2.0 1.1 13 169
- 0.277616 2 1 ack 40 ------- 1 2.0 1.1 13 169
r 0.277616 2 3 tcp 1040 ------- 1 2.1 3.0 13 124
+ 0.277616 3 2 ack 40 ------- 1 3.0 2.1 13 170
- 0.277616 3 2 ack 40 ------- 1 3.0 2.1 13 170
r 0.277616 3 4 tcp 1040 ------- 1 3.1 4.0 13 126
+ 0.277616 4 3 ack 40 ------- 1 4.0 3.1 13 171
- 0.277616 4 3 ack 40 ------- 1 4.0 3.1 13 171
r 0.277616 4 5 tcp 1040 ------- 1 4.1 5.0 13 128
+ 0.277616 5 4 ack 40 ------- 1 5.0 4.1 13 172
- 0.277616 5 4 ack 40 ------- 1 5.0 4.1 13 172
r 0.277616 5 0 tcp 1040 ------- 1 5.1 0.1 13 130
+ 0.277616 0 5 ack 40 ------- 1 0.1 5.1 13 173
- 0.277616 0 5 ack 40 ------- 1 0.1 5.1 13 173
r 0.282656 1 0 ack 40 ------- 1 1.0 0.0 7 132
+ 0.282656 0 1 tcp 1040 ------- 1 0.0 1.0 15 174
- 0.282656 0 1 tcp 1040 ------- 1 0.0 1.0 15 174
+ 0.282656 0 1 tcp 1040 ------- 1 0.0 1.0 16 175
r 0.282656 2 1 ack 40 ------- 1 2.0 1.1 7 133
+ 0.282656 1 2 tcp 1040 ------- 1 1.1 2.0 15 176
- 0.282656 1 2 tcp 1040 ------- 1 1.1 2.0 15 176
+ 0.282656 1 2 tcp 1040 ------- 1 1.1 2.0 16 177
r 0.282656 3 2 ack 40 ------- 1 3.0 2.1 7 134
+ 0.282656 2 3 tcp 1040 ------- 1 2.1 3.0 15 178
- 0.282656 2 3 tcp 1040 ------- 1 2.1 3.0 15 178
+ 0.282656 2 3 tcp 1040 ------- 1 2.1 3.0 16 179
r 0.282656 4 3 ack 40 ------- 1 4.0 3.1 7 135
+ 0.282656 3 4 tcp 1040 ------- 1 3.1 4.0 15 180
- 0.282656 3 4 tcp 1040 ------- 1 3.1 4.0 15 180
+ 0.282656 3 4 tcp 1040 ------- 1 3.1 4.0 16 181
r 0.282656 5 4 ack 40 ------- 1 5.0 4.1 7 136
+ 0.282656 4 5 tcp 1040 ------- 1 4.1 5.0 15 182
- 0.282656 4 5 tcp 1040 ------- 1 4.1 5.0 15 182
+ 0.282656 4 5 tcp 1040 ------- 1 4.1 5.0 16 183
r 0.282656 0 5 ack 40 ------- 1 0.1 5.1 7 137
+ 0.282656 5 0 tcp 1040 ------- 1 5.1 0.1 15 184
- 0.282656 5 0 tcp 1040 ------- 1 5.1 0.1 15 184
+ 0.282656 5 0 tcp 1040 ------- 1 5.1 0.1 16 185
r 0.283488 1 0 ack 40 ------- 1 1.0 0.0 8 138
+ 0.283488 0 1 tcp 1040 ------- 1 0.0 1.0 17 186
+ 0.283488 0 1 tcp 1040 ------- 1 0.0 1.0 18 187
r 0.283488 2 1 ack 40 ------- 1 2.0 1.1 8 139
+ 0.283488 1 2 tcp 1040 ------- 1 1.1 2.0 17 188
+ 0.283488 1 2 tcp 1040 ------- 1 1.1 2.0 18 189
r 0.283488 3 2 ack 40 ------- 1 3.0 2.1 8 140
+ 0.283488 2 3 tcp 1040 ------- 1 2.1 3.0 17 190
+ 0.283488 2 3 tcp 1040 ------- 1 2.1 3.0 18 191
r 0.283488 4 3 ack 40 ------- 1 4.0 3.1 8 141
+ 0.283488 3 4 tcp 1040 ------- 1 3.1 4.0 17 192
+ 0.283488 3 4 tcp 1040 ------- 1 3.1 4.0 18 193
r 0.283488 5 4 ack 40 ------- 1 5.0 4.1 8 142
+ 0.283488 4 5 tcp 1040 ------- 1 4.1 5.0 17 194
+ 0.283488 4 5 tcp 1040 ------- 1 4.1 5.0 18 195
r 0.283488 0 5 ack 40 ------- 1 0.1 5.1 8 143
+ 0.283488 5 0 tcp 1040 ------- 1 5.1 0.1 17 196
+ 0.283488 5 0 tcp 1040 ------- 1 5.1 0.1 18 197
- 0.283488 0 1 tcp 1040 ------- 1 0.0 1.0 16 175
- 0.283488 1 2 tcp 1040 ------- 1 1.1 2.0 16 177
- 0.283488 2 3 tcp 1040 ------- 1 2.1 3.0 16 179
- 0.283488 3 4 tcp 1040 ------- 1 3.1 4.0 16 181
- 0.283488 4 5 tcp 1040 ------- 1 4.1 5.0 16 183
- 0.283488 5 0 tcp 1040 ------- 1 5.1 0.1 16 185
r 0.28432 1 0 ack 40 ------- 1 1.0 0.0 9 144
+ 0.28432 0 1 tcp 1040 ------- 1 0.0 1.0 19 198
+ 0.28432 0 1 tcp 1040 ------- 1 0.0 1.0 20 199
r 0.28432 2 1 ack 40 ------- 1 2.0 1.1 9 145
+ 0.28432 1 2 tcp 1040 ------- 1 1.1 2.0 19 200
+ 0.28432 1 2 tcp 1040 ------- 1 1.1 2.0 20 201
r 0.28432 3 2 ack 40 ------- 1 3.0 2.1 9 146
+ 0.28432 2 3 tcp 1040 ------- 1 2.1 3.0 19 202
+ 0.28432 2 3 tcp 1040 ------- 1 2.1 3.0 20 203
r 0.28432 4 3 ack 40 ------- 1 4.0 3.1 9 147
+ 0.28432 3 4 tcp 1040 ------- 1 3.1 4.0 19 204
+ 0.28432 3 4 tcp 1040 ------- 1 3.1 4.0 20 205
r 0.28432 5 4 ack 40 ------- 1 5.0 4.1 9 148
+ 0.28432 4 5 tcp 1040 ------- 1 4.1 5.0 19 206
+ 0.28432 4 5 tcp 1040 ------- 1 4.1 5.0 20 207
r 0.28432 0 5 ack 40 ------- 1 0.1 5.1 9 149
+ 0.28432 5 0 tcp 1040 ------- 1 5.1 0.1 19 208
+ 0.28432 5 0 tcp 1040 ------- 1 5.1 0.1 20 209
- 0.28432 0 1 tcp 1040 ------- 1 0.0 1.0 17 186
- 0.28432 1 2 tcp 1040 ------- 1 1.1 2.0 17 188
- 0.28432 2 3 tcp 1040 ------- 1 2.1 3.0 17 190
- 0.28432 3 4 tcp 1040 ------- 1 3.1 4.0 17 192
- 0.28432 4 5 tcp 1040 ------- 1 4.1 5.0 17 194
- 0.28432 5 0 tcp 1040 ------- 1 5.1 0.1 17 196
r 0.285152 1 0 ack 40 ------- 1 1.0 0.0 10 150
+ 0.285152 0 1 tcp 1040 ------- 1 0.0 1.0 21 210
+ 0.285152 0 1 tcp 1040 ------- 1 0.0 1.0 22 211
d 0.285152 0 1 tcp 1040 ------- 1 0.0 1.0 22 211
r 0.285152 2 1 ack 40 ------- 1 2.0 1.1 10 151
+ 0.285152 1 2 tcp 1040 ------- 1 1.1 2.0 21 212
+ 0.285152 1 2 tcp 1040 ------- 1 1.1 2.0 22 213
d 0.285152 1 2 tcp 1040 ------- 1 1.1 2.0 22 213
r 0.285152 3 2 ack 40 ------- 1 3.0 2.1 10 152
+ 0.285152 2 3 tcp 1040 ------- 1 2.1 3.0 21 214
+ 0.285152 2 3 tcp 1040 ------- 1 2.1 3.0 22 215
d 0.285152 2 3 tcp 1040 ------- 1 2.1 3.0 22 215
r 0.285152 4 3 ack 40 ------- 1 4.0 3.1 10 153
+ 0.285152 3 4 tcp 1040 ------- 1 3.1 4.0 21 216
+ 0.285152 3 4 tcp 1040 ------- 1 3.1 4.0 22 217
d 0.285152 3 4 tcp 1040 ------- 1 3.1 4.0 22 217
r 0.285152 5 4 ack 40 ------- 1 5.0 4.1 10 154
+ 0.285152 4 5 tcp 1040 ------- 1 4.1 5.0 21 218
+ 0.285152 4 5 tcp 1040 ------- 1 4.1 5.0 22 219
d 0.285152 4 5 tcp 1040 ------- 1 4.1 5.0 22 219
r 0.285152 0 5 ack 40 ------- 1 0.1 5.1 10 155
+ 0.285152 5 0 tcp 1040 ------- 1 5.1 0.1 21 220
+ 0.285152 5 0 tcp 1040 ------- 1 5.1 0.1 22 221
d 0.285152 5 0 tcp 1040 ------- 1 5.1 0.1 22 221
- 0.285152 0 1 tcp 1040 ------- 1 0.0 1.0 18 187
- 0.285152 1 2 tcp 1040 ------- 1 1.1 2.0 18 189
- 0.285152 2 3 tcp 1040 ------- 1 2.1 3.0 18 191
- 0.285152 3 4 tcp 1040 ------- 1 3.1 4.0 18 193
- 0.285152 4 5 tcp 1040 ------- 1 4.1 5.0 18 195
- 0.285152 5 0 tcp 1040 ------- 1 5.1 0.1 18 197
r 0.285984 1 0 ack 40 ------- 1 1.0 0.0 11 156
+ 0.285984 0 1 tcp 1040 ------- 1 0.0 1.0 23 222
+ 0.285984 0 1 tcp 1040 ------- 1 0.0 1.0 24 223
d 0.285984 0 1 tcp 1040 ------- 1 0.0 1.0 24 223
r 0.285984 2 1 ack 40 ------- 1 2.0 1.1 11 157
+ 0.285984 1 2 tcp 1040 ------- 1 1.1 2.0 23 224
+ 0.285984 1 2 tcp 1040 ------- 1 1.1 2.0 24 225
d 0.285984 1 2 tcp 1040 ------- 1 1.1 2.0 24 225
r 0.285984 3 2 ack 40 ------- 1 3.0 2.1 11 158
+ 0.285984 2 3 tcp 1040 ------- 1 2.1 3.0 23 226
+ 0.285984 2 3 tcp 1040 ------- 1 2.1 3.0 24 227
d 0.285984 2 3 tcp 1040 ------- 1 2.1 3.0 24 227
r 0.285984 4 3 ack 40 ------- 1 4.0 3.1 11 159
+ 0.285984 3 4 tcp 1040 ------- 1 3.1 4.0 23 228
+ 0.285984 3 4 tcp 1040 ------- 1 3.1 4.0 24 229
d 0.285984 3 4 tcp 1040 ------- 1 3.1 4.0 24 229
r 0.285984 5 4 ack 40 ------- 1 5.0 4.1 11 160
+ 0.285984 4 5 tcp 1040 ------- 1 4.1 5.0 23 230
+ 0.285984 4 5 tcp 1040 ------- 1 4.1 5.0 24 231
d 0.285984 4 5 tcp 1040 ------- 1 4.1 5.0 24 231
r 0.285984 0 5 ack 40 ------- 1 0.1 5.1 11 161
+ 0.285984 5 0 tcp 1040 ------- 1 5.1 0.1 23 232
+ 0.285984 5 0 tcp 1040 ------- 1 5.1 0.1 24 233
d 0.285984 5 0 tcp 1040 ------- 1 5.1 0.1 24 233
- 0.285984 0 1 tcp 1040 ------- 1 0.0 1.0 19 198
- 0.285984 1 2 tcp 1040 ------- 1 1.1 2.0 19 200
- 0.285984 2 3 tcp 1040 ------- 1 2.1 3.0 19 202
- 0.285984 3 4 tcp 1040 ------- 1 3.1 4.0 19 204
- 0.285984 4 5 tcp 1040 ------- 1 4.1 5.0 19 206
- 0.285984 5 0 tcp 1040 ------- 1 5.1 0.1 19 208
r 0.286816 1 0 ack 40 ------- 1 1.0 0.0 12 162
+ 0.286816 0 1 tcp 1040 ------- 1 0.0 1.0 25 234
+ 0.286816 0 1 tcp 1040 ------- 1 0.0 1.0 26 235
d 0.286816 0 1 tcp 1040 ------- 1 0.0 1.0 26 235
r 0.286816 2 1 ack 40 ------- 1 2.0 1.1 12 163
+ 0.286816 1 2 tcp 1040 ------- 1 1.1 2.0 25 236
+ 0.286816 1 2 tcp 1040 ------- 1 1.1 2.0 26 237
d 0.286816 1 2 tcp 1040 ------- 1 1.1 2.0 26 237
r 0.286816 3 2 ack 40 ------- 1 3.0 2.1 12 164
+ 0.286816 2 3 tcp 1040 ------- 1 2.1 3.0 25 238
+ 0.286816 2 3 tcp 1040 ------- 1 2.1 3.0 26 239
d 0.286816 2 3 tcp 1040 ------- 1 2.1 3.0 26 239
r 0.286816 4 3 ack 40 ------- 1 4.0 3.1 12 165
+ 0.286816 3 4 tcp 1040 ------- 1 3.1 4.0 25 240
+ 0.286816 3 4 tcp 1040 ------- 1 3.1 4.0 26 241
d 0.286816 3 4 tcp 1040 ------- 1 3.1 4.0 26 241
r 0.286816 5 4 ack 40 ------- 1 5.0 4.1 12 166
+ 0.286816 4 5 tcp 1040 ------- 1 4.1 5.0 25 242
+ 0.286816 4 5 tcp 1040 ------- 1 4.1 5.0 26 243
d 0.286816 4 5 tcp 1040 ------- 1 4.1 5.0 26 243
r 0.286816 0 5 ack 40 ------- 1 0.1 5.1 12 167
+ 0.286816 5 0 tcp 1040 ------- 1 5.1 0.1 25 244
+ 0.286816 5 0 tcp 1040 ------- 1 5.1 0.1 26 245
d 0.286816 5 0 tcp 1040 ------- 1 5.1 0.1 26 245
- 0.286816 0 1 tcp 1040 ------- 1 0.0 1.0 20 199
- 0.286816 1 2 tcp 1040 ------- 1 1.1 2.0 20 201
- 0.286816 2 3 tcp 1040 ------- 1 2.1 3.0 20 203
- 0.286816 3 4 tcp 1040 ------- 1 3.1 4.0 20 205
- 0.286816 4 5 tcp 1040 ------- 1 4.1 5.0 20 207
- 0.286816 5 0 tcp 1040 ------- 1 5.1 0.1 20 209
r 0.287648 1 0 ack 40 ------- 1 1.0 0.0 13 168
+ 0.287648 0 1 tcp 1040 ------- 1 0.0 1.0 27 246
+ 0.287648 0 1 tcp 1040 ------- 1 0.0 1.0 28 247
d 0.287648 0 1 tcp 1040 ------- 1 0.0 1.0 28 247