+ 0.214842 2 3 tcp 40 ------- 1 2.2 3.2 0 0
- 0.214842 2 3 tcp 40 ------- 1 2.2 3.2 0 0
+ 0.217456 2 4 tcp 40 ------- 1 2.3 4.2 0 1
- 0.217456 2 4 tcp 40 ------- 1 2.3 4.2 0 1
+ 0.22144 0 1 tcp 40 ------- 1 0.0 1.0 0 2
- 0.22144 0 1 tcp 40 ------- 1 0.0 1.0 0 2
r 0.224844 2 3 tcp 40 ------- 1 2.2 3.2 0 0
+ 0.224844 3 2 ack 40 ------- 1 3.2 2.2 0 3
- 0.224844 3 2 ack 40 ------- 1 3.2 2.2 0 3
r 0.227458 2 4 tcp 40 ------- 1 2.3 4.2 0 1
+ 0.227458 4 2 ack 40 ------- 1 4.2 2.3 0 4
- 0.227458 4 2 ack 40 ------- 1 4.2 2.3 0 4
r 0.231441 0 1 tcp 40 ------- 1 0.0 1.0 0 2
+ 0.231441 1 0 ack 40 ------- 1 1.0 0.0 0 5
- 0.231441 1 0 ack 40 ------- 1 1.0 0.0 0 5
r 0.234845 3 2 ack 40 ------- 1 3.2 2.2 0 3
+ 0.234845 2 3 tcp 1040 ------- 1 2.2 3.2 1 6
- 0.234845 2 3 tcp 1040 ------- 1 2.2 3.2 1 6
+ 0.236773 1 4 tcp 40 ------- 1 1.3 4.1 0 7
- 0.236773 1 4 tcp 40 ------- 1 1.3 4.1 0 7
r 0.237459 4 2 ack 40 ------- 1 4.2 2.3 0 4
+ 0.237459 2 4 tcp 1040 ------- 1 2.3 4.2 1 8
- 0.237459 2 4 tcp 1040 ------- 1 2.3 4.2 1 8
+ 0.237459 2 4 tcp 1040 ------- 1 2.3 4.2 2 9
- 0.237501 2 4 tcp 1040 ------- 1 2.3 4.2 2 9
r 0.241443 1 0 ack 40 ------- 1 1.0 0.0 0 5
+ 0.241443 0 1 tcp 1040 ------- 1 0.0 1.0 1 10
- 0.241443 0 1 tcp 1040 ------- 1 0.0 1.0 1 10
r 0.244887 2 3 tcp 1040 ------- 1 2.2 3.2 1 6
+ 0.244887 3 2 ack 40 ------- 1 3.2 2.2 1 11
- 0.244887 3 2 ack 40 ------- 1 3.2 2.2 1 11
r 0.246774 1 4 tcp 40 ------- 1 1.3 4.1 0 7
+ 0.246774 4 1 ack 40 ------- 1 4.1 1.3 0 12
- 0.246774 4 1 ack 40 ------- 1 4.1 1.3 0 12
r 0.247501 2 4 tcp 1040 ------- 1 2.3 4.2 1 8
+ 0.247501 4 2 ack 40 ------- 1 4.2 2.3 1 13
- 0.247501 4 2 ack 40 ------- 1 4.2 2.3 1 13
r 0.247543 2 4 tcp 1040 ------- 1 2.3 4.2 2 9
+ 0.247543 4 2 ack 40 ------- 1 4.2 2.3 2 14
- 0.247543 4 2 ack 40 ------- 1 4.2 2.3 2 14
r 0.251484 0 1 tcp 1040 ------- 1 0.0 1.0 1 10
+ 0.251484 1 0 ack 40 ------- 1 1.0 0.0 1 15
- 0.251484 1 0 ack 40 ------- 1 1.0 0.0 1 15
r 0.254889 3 2 ack 40 ------- 1 3.2 2.2 1 11
r 0.256776 4 1 ack 40 ------- 1 4.1 1.3 0 12
+ 0.256776 1 4 tcp 1040 ------- 1 1.3 4.1 1 16
- 0.256776 1 4 tcp 1040 ------- 1 1.3 4.1 1 16
+ 0.256776 1 4 tcp 1040 ------- 1 1.3 4.1 2 17
- 0.256817 1 4 tcp 1040 ------- 1 1.3 4.1 2 17
r 0.257503 4 2 ack 40 ------- 1 4.2 2.3 1 13
r 0.257544 4 2 ack 40 ------- 1 4.2 2.3 2 14
+ 0.260396 0 1 tcp 1040 ------- 1 0.0 1.0 2 18
- 0.260396 0 1 tcp 1040 ------- 1 0.0 1.0 2 18
+ 0.260728 2 4 tcp 1040 ------- 1 2.3 4.2 3 19
- 0.260728 2 4 tcp 1040 ------- 1 2.3 4.2 3 19
r 0.261486 1 0 ack 40 ------- 1 1.0 0.0 1 15
+ 0.265653 1 2 tcp 40 ------- 1 1.1 2.1 0 20
- 0.265653 1 2 tcp 40 ------- 1 1.1 2.1 0 20
r 0.266817 1 4 tcp 1040 ------- 1 1.3 4.1 1 16
+ 0.266817 4 1 ack 40 ------- 1 4.1 1.3 1 21
- 0.266817 4 1 ack 40 ------- 1 4.1 1.3 1 21
r 0.266859 1 4 tcp 1040 ------- 1 1.3 4.1 2 17
+ 0.266859 4 1 ack 40 ------- 1 4.1 1.3 2 22
- 0.266859 4 1 ack 40 ------- 1 4.1 1.3 2 22
r 0.270438 0 1 tcp 1040 ------- 1 0.0 1.0 2 18
+ 0.270438 1 0 ack 40 ------- 1 1.0 0.0 2 23
- 0.270438 1 0 ack 40 ------- 1 1.0 0.0 2 23
r 0.27077 2 4 tcp 1040 ------- 1 2.3 4.2 3 19
+ 0.27077 4 2 ack 40 ------- 1 4.2 2.3 3 24
- 0.27077 4 2 ack 40 ------- 1 4.2 2.3 3 24
r 0.275654 1 2 tcp 40 ------- 1 1.1 2.1 0 20
+ 0.275654 2 1 ack 40 ------- 1 2.1 1.1 0 25
- 0.275654 2 1 ack 40 ------- 1 2.1 1.1 0 25
+ 0.276332 1 3 tcp 40 ------- 1 1.2 3.1 0 26
- 0.276332 1 3 tcp 40 ------- 1 1.2 3.1 0 26
r 0.276819 4 1 ack 40 ------- 1 4.1 1.3 1 21
r 0.276861 4 1 ack 40 ------- 1 4.1 1.3 2 22
r 0.28044 1 0 ack 40 ------- 1 1.0 0.0 2 23
r 0.280772 4 2 ack 40 ------- 1 4.2 2.3 3 24
r 0.285656 2 1 ack 40 ------- 1 2.1 1.1 0 25
+ 0.285656 1 2 tcp 1040 ------- 1 1.1 2.1 1 27
- 0.285656 1 2 tcp 1040 ------- 1 1.1 2.1 1 27
r 0.286334 1 3 tcp 40 ------- 1 1.2 3.1 0 26
+ 0.286334 3 1 ack 40 ------- 1 3.1 1.2 0 28
- 0.286334 3 1 ack 40 ------- 1 3.1 1.2 0 28
+ 0.289481 0 4 tcp 40 ------- 1 0.3 4.0 0 29
- 0.289481 0 4 tcp 40 ------- 1 0.3 4.0 0 29
r 0.295698 1 2 tcp 1040 ------- 1 1.1 2.1 1 27
+ 0.295698 2 1 ack 40 ------- 1 2.1 1.1 1 30
- 0.295698 2 1 ack 40 ------- 1 2.1 1.1 1 30
r 0.296335 3 1 ack 40 ------- 1 3.1 1.2 0 28
+ 0.296335 1 3 tcp 1040 ------- 1 1.2 3.1 1 31
- 0.296335 1 3 tcp 1040 ------- 1 1.2 3.1 1 31
+ 0.296335 1 3 tcp 1040 ------- 1 1.2 3.1 2 32
- 0.296377 1 3 tcp 1040 ------- 1 1.2 3.1 2 32
r 0.299482 0 4 tcp 40 ------- 1 0.3 4.0 0 29
+ 0.299482 4 0 ack 40 ------- 1 4.0 0.3 0 33
- 0.299482 4 0 ack 40 ------- 1 4.0 0.3 0 33
+ 0.305343 0 2 tcp 40 ------- 1 0.1 2.0 0 34
- 0.305343 0 2 tcp 40 ------- 1 0.1 2.0 0 34
r 0.305699 2 1 ack 40 ------- 1 2.1 1.1 1 30
r 0.306377 1 3 tcp 1040 ------- 1 1.2 3.1 1 31
+ 0.306377 3 1 ack 40 ------- 1 3.1 1.2 1 35
- 0.306377 3 1 ack 40 ------- 1 3.1 1.2 1 35
r 0.306418 1 3 tcp 1040 ------- 1 1.2 3.1 2 32
+ 0.306418 3 1 ack 40 ------- 1 3.1 1.2 2 36
- 0.306418 3 1 ack 40 ------- 1 3.1 1.2 2 36
r 0.309484 4 0 ack 40 ------- 1 4.0 0.3 0 33
+ 0.309484 0 4 tcp 1040 ------- 1 0.3 4.0 1 37
- 0.309484 0 4 tcp 1040 ------- 1 0.3 4.0 1 37
+ 0.309484 0 4 tcp 1040 ------- 1 0.3 4.0 2 38
- 0.309526 0 4 tcp 1040 ------- 1 0.3 4.0 2 38
r 0.315344 0 2 tcp 40 ------- 1 0.1 2.0 0 34
+ 0.315344 2 0 ack 40 ------- 1 2.0 0.1 0 39
- 0.315344 2 0 ack 40 ------- 1 2.0 0.1 0 39
r 0.316378 3 1 ack 40 ------- 1 3.1 1.2 1 35
+ 0.316378 1 3 tcp 1040 ------- 1 1.2 3.1 3 40
- 0.316378 1 3 tcp 1040 ------- 1 1.2 3.1 3 40
r 0.31642 3 1 ack 40 ------- 1 3.1 1.2 2 36
r 0.319526 0 4 tcp 1040 ------- 1 0.3 4.0 1 37
+ 0.319526 4 0 ack 40 ------- 1 4.0 0.3 1 41
- 0.319526 4 0 ack 40 ------- 1 4.0 0.3 1 41
r 0.319567 0 4 tcp 1040 ------- 1 0.3 4.0 2 38
+ 0.319567 4 0 ack 40 ------- 1 4.0 0.3 2 42
- 0.319567 4 0 ack 40 ------- 1 4.0 0.3 2 42
r 0.325346 2 0 ack 40 ------- 1 2.0 0.1 0 39
+ 0.325346 0 2 tcp 1040 ------- 1 0.1 2.0 1 43
- 0.325346 0 2 tcp 1040 ------- 1 0.1 2.0 1 43
r 0.32642 1 3 tcp 1040 ------- 1 1.2 3.1 3 40
+ 0.32642 3 1 ack 40 ------- 1 3.1 1.2 3 44
- 0.32642 3 1 ack 40 ------- 1 3.1 1.2 3 44
r 0.329527 4 0 ack 40 ------- 1 4.0 0.3 1 41
r 0.329569 4 0 ack 40 ------- 1 4.0 0.3 2 42
r 0.335387 0 2 tcp 1040 ------- 1 0.1 2.0 1 43
+ 0.335387 2 0 ack 40 ------- 1 2.0 0.1 1 45
- 0.335387 2 0 ack 40 ------- 1 2.0 0.1 1 45
+ 0.335445 0 3 tcp 40 ------- 1 0.2 3.0 0 46
- 0.335445 0 3 tcp 40 ------- 1 0.2 3.0 0 46
r 0.336422 3 1 ack 40 ------- 1 3.1 1.2 3 44
+ 0.337019 1 4 tcp 1040 ------- 1 1.3 4.1 3 47
- 0.337019 1 4 tcp 1040 ------- 1 1.3 4.1 3 47
r 0.345389 2 0 ack 40 ------- 1 2.0 0.1 1 45
r 0.345447 0 3 tcp 40 ------- 1 0.2 3.0 0 46
+ 0.345447 3 0 ack 40 ------- 1 3.0 0.2 0 48
- 0.345447 3 0 ack 40 ------- 1 3.0 0.2 0 48
r 0.347061 1 4 tcp 1040 ------- 1 1.3 4.1 3 47
+ 0.347061 4 1 ack 40 ------- 1 4.1 1.3 3 49
- 0.347061 4 1 ack 40 ------- 1 4.1 1.3 3 49
+ 0.351311 2 4 tcp 1040 ------- 1 2.3 4.2 4 50
- 0.351311 2 4 tcp 1040 ------- 1 2.3 4.2 4 50
+ 0.352712 3 4 tcp 40 ------- 1 3.3 4.3 0 51
- 0.352712 3 4 tcp 40 ------- 1 3.3 4.3 0 51
r 0.355449 3 0 ack 40 ------- 1 3.0 0.2 0 48
+ 0.355449 0 3 tcp 1040 ------- 1 0.2 3.0 1 52
- 0.355449 0 3 tcp 1040 ------- 1 0.2 3.0 1 52
+ 0.357044 2 3 tcp 1040 ------- 1 2.2 3.2 2 53
- 0.357044 2 3 tcp 1040 ------- 1 2.2 3.2 2 53
r 0.357063 4 1 ack 40 ------- 1 4.1 1.3 3 49
r 0.361353 2 4 tcp 1040 ------- 1 2.3 4.2 4 50
+ 0.361353 4 2 ack 40 ------- 1 4.2 2.3 4 54
- 0.361353 4 2 ack 40 ------- 1 4.2 2.3 4 54
r 0.362714 3 4 tcp 40 ------- 1 3.3 4.3 0 51
+ 0.362714 4 3 ack 40 ------- 1 4.3 3.3 0 55
- 0.362714 4 3 ack 40 ------- 1 4.3 3.3 0 55
r 0.36549 0 3 tcp 1040 ------- 1 0.2 3.0 1 52
+ 0.36549 3 0 ack 40 ------- 1 3.0 0.2 1 56
- 0.36549 3 0 ack 40 ------- 1 3.0 0.2 1 56
r 0.367086 2 3 tcp 1040 ------- 1 2.2 3.2 2 53
+ 0.367086 3 2 ack 40 ------- 1 3.2 2.2 2 57
- 0.367086 3 2 ack 40 ------- 1 3.2 2.2 2 57
r 0.371354 4 2 ack 40 ------- 1 4.2 2.3 4 54
r 0.372716 4 3 ack 40 ------- 1 4.3 3.3 0 55
+ 0.372716 3 4 tcp 1040 ------- 1 3.3 4.3 1 58
- 0.372716 3 4 tcp 1040 ------- 1 3.3 4.3 1 58
r 0.375492 3 0 ack 40 ------- 1 3.0 0.2 1 56
r 0.377088 3 2 ack 40 ------- 1 3.2 2.2 2 57
r 0.382757 3 4 tcp 1040 ------- 1 3.3 4.3 1 58
+ 0.382757 4 3 ack 40 ------- 1 4.3 3.3 1 59
- 0.382757 4 3 ack 40 ------- 1 4.3 3.3 1 59
+ 0.38736 0 3 tcp 1040 ------- 1 0.2 3.0 2 60
- 0.38736 0 3 tcp 1040 ------- 1 0.2 3.0 2 60
r 0.392759 4 3 ack 40 ------- 1 4.3 3.3 1 59
+ 0.392966 3 4 tcp 1040 ------- 1 3.3 4.3 2 61
- 0.392966 3 4 tcp 1040 ------- 1 3.3 4.3 2 61
r 0.397402 0 3 tcp 1040 ------- 1 0.2 3.0 2 60
+ 0.397402 3 0 ack 40 ------- 1 3.0 0.2 2 62
- 0.397402 3 0 ack 40 ------- 1 3.0 0.2 2 62
r 0.403007 3 4 tcp 1040 ------- 1 3.3 4.3 2 61
+ 0.403007 4 3 ack 40 ------- 1 4.3 3.3 2 63
- 0.403007 4 3 ack 40 ------- 1 4.3 3.3 2 63
r 0.407403 3 0 ack 40 ------- 1 3.0 0.2 2 62
r 0.413009 4 3 ack 40 ------- 1 4.3 3.3 2 63
+ 0.423217 0 3 tcp 1040 ------- 1 0.2 3.0 3 64
- 0.423217 0 3 tcp 1040 ------- 1 0.2 3.0 3 64
+ 0.433122 1 2 tcp 1040 ------- 1 1.1 2.1 2 65
- 0.433122 1 2 tcp 1040 ------- 1 1.1 2.1 2 65
r 0.433259 0 3 tcp 1040 ------- 1 0.2 3.0 3 64
+ 0.433259 3 0 ack 40 ------- 1 3.0 0.2 3 66
- 0.433259 3 0 ack 40 ------- 1 3.0 0.2 3 66
+ 0.436382 0 3 tcp 1040 ------- 1 0.2 3.0 4 67
- 0.436382 0 3 tcp 1040 ------- 1 0.2 3.0 4 67
r 0.443164 1 2 tcp 1040 ------- 1 1.1 2.1 2 65
+ 0.443164 2 1 ack 40 ------- 1 2.1 1.1 2 68
- 0.443164 2 1 ack 40 ------- 1 2.1 1.1 2 68
r 0.443261 3 0 ack 40 ------- 1 3.0 0.2 3 66
+ 0.446184 1 4 tcp 1040 ------- 1 1.3 4.1 4 69
- 0.446184 1 4 tcp 1040 ------- 1 1.3 4.1 4 69
r 0.446423 0 3 tcp 1040 ------- 1 0.2 3.0 4 67
+ 0.446423 3 0 ack 40 ------- 1 3.0 0.2 4 70
- 0.446423 3 0 ack 40 ------- 1 3.0 0.2 4 70
r 0.453166 2 1 ack 40 ------- 1 2.1 1.1 2 68
+ 0.453695 3 4 tcp 1040 ------- 1 3.3 4.3 3 71
- 0.453695 3 4 tcp 1040 ------- 1 3.3 4.3 3 71
r 0.456226 1 4 tcp 1040 ------- 1 1.3 4.1 4 69
+ 0.456226 4 1 ack 40 ------- 1 4.1 1.3 4 72
- 0.456226 4 1 ack 40 ------- 1 4.1 1.3 4 72
r 0.456425 3 0 ack 40 ------- 1 3.0 0.2 4 70
r 0.463737 3 4 tcp 1040 ------- 1 3.3 4.3 3 71
+ 0.463737 4 3 ack 40 ------- 1 4.3 3.3 3 73
- 0.463737 4 3 ack 40 ------- 1 4.3 3.3 3 73
r 0.466227 4 1 ack 40 ------- 1 4.1 1.3 4 72
r 0.473739 4 3 ack 40 ------- 1 4.3 3.3 3 73
+ 0.481855 0 1 tcp 1040 ---A--- 1 0.0 1.0 3 74
- 0.481855 0 1 tcp 1040 ---A--- 1 0.0 1.0 3 74
r 0.491897 0 1 tcp 1040 ---A--- 1 0.0 1.0 3 74
+ 0.491897 1 0 ack 40 ------- 1 1.0 0.0 3 75
- 0.491897 1 0 ack 40 ------- 1 1.0 0.0 3 75
+ 0.492915 2 3 tcp 1040 ------- 1 2.2 3.2 3 76
- 0.492915 2 3 tcp 1040 ------- 1 2.2 3.2 3 76
+ 0.495289 0 3 tcp 1040 ------- 1 0.2 3.0 5 77
- 0.495289 0 3 tcp 1040 ------- 1 0.2 3.0 5 77
r 0.501899 1 0 ack 40 ------- 1 1.0 0.0 3 75
r 0.502956 2 3 tcp 1040 ------- 1 2.2 3.2 3 76
+ 0.502956 3 2 ack 40 ------- 1 3.2 2.2 3 78
- 0.502956 3 2 ack 40 ------- 1 3.2 2.2 3 78
r 0.505331 0 3 tcp 1040 ------- 1 0.2 3.0 5 77
+ 0.505331 3 0 ack 40 ------- 1 3.0 0.2 5 79
- 0.505331 3 0 ack 40 ------- 1 3.0 0.2 5 79
+ 0.512694 1 3 tcp 1040 ------- 1 1.2 3.1 4 80
- 0.512694 1 3 tcp 1040 ------- 1 1.2 3.1 4 80
r 0.512958 3 2 ack 40 ------- 1 3.2 2.2 3 78
r 0.515332 3 0 ack 40 ------- 1 3.0 0.2 5 79
+ 0.518159 1 3 tcp 1040 ------- 1 1.2 3.1 5 81
- 0.518159 1 3 tcp 1040 ------- 1 1.2 3.1 5 81
+ 0.519498 0 3 tcp 1040 ------- 1 0.2 3.0 6 82
- 0.519498 0 3 tcp 1040 ------- 1 0.2 3.0 6 82
r 0.522736 1 3 tcp 1040 ------- 1 1.2 3.1 4 80
+ 0.522736 3 1 ack 40 ------- 1 3.1 1.2 4 83
- 0.522736 3 1 ack 40 ------- 1 3.1 1.2 4 83
r 0.528201 1 3 tcp 1040 ------- 1 1.2 3.1 5 81
+ 0.528201 3 1 ack 40 ------- 1 3.1 1.2 5 84
- 0.528201 3 1 ack 40 ------- 1 3.1 1.2 5 84
r 0.52954 0 3 tcp 1040 ------- 1 0.2 3.0 6 82
+ 0.52954 3 0 ack 40 ------- 1 3.0 0.2 6 85
- 0.52954 3 0 ack 40 ------- 1 3.0 0.2 6 85
+ 0.531589 1 4 tcp 1040 ------- 1 1.3 4.1 5 86
- 0.531589 1 4 tcp 1040 ------- 1 1.3 4.1 5 86
r 0.532737 3 1 ack 40 ------- 1 3.1 1.2 4 83
r 0.538202 3 1 ack 40 ------- 1 3.1 1.2 5 84
r 0.539541 3 0 ack 40 ------- 1 3.0 0.2 6 85
r 0.541631 1 4 tcp 1040 ------- 1 1.3 4.1 5 86
+ 0.541631 4 1 ack 40 ------- 1 4.1 1.3 5 87
- 0.541631 4 1 ack 40 ------- 1 4.1 1.3 5 87
+ 0.543946 1 3 tcp 1040 ------- 1 1.2 3.1 6 88
- 0.543946 1 3 tcp 1040 ------- 1 1.2 3.1 6 88
r 0.551632 4 1 ack 40 ------- 1 4.1 1.3 5 87
r 0.553988 1 3 tcp 1040 ------- 1 1.2 3.1 6 88
+ 0.553988 3 1 ack 40 ------- 1 3.1 1.2 6 89
- 0.553988 3 1 ack 40 ------- 1 3.1 1.2 6 89
+ 0.560784 2 4 tcp 1040 ------- 1 2.3 4.2 5 90
- 0.560784 2 4 tcp 1040 ------- 1 2.3 4.2 5 90
+ 0.563213 2 4 tcp 1040 ------- 1 2.3 4.2 6 91
- 0.563213 2 4 tcp 1040 ------- 1 2.3 4.2 6 91
r 0.563989 3 1 ack 40 ------- 1 3.1 1.2 6 89
+ 0.567131 1 2 tcp 1040 ------- 1 1.1 2.1 3 92
- 0.567131 1 2 tcp 1040 ------- 1 1.1 2.1 3 92
+ 0.567983 1 4 tcp 1040 ------- 1 1.3 4.1 6 93
- 0.567983 1 4 tcp 1040 ------- 1 1.3 4.1 6 93
r 0.570826 2 4 tcp 1040 ------- 1 2.3 4.2 5 90
+ 0.570826 4 2 ack 40 ------- 1 4.2 2.3 5 94
- 0.570826 4 2 ack 40 ------- 1 4.2 2.3 5 94
r 0.573254 2 4 tcp 1040 ------- 1 2.3 4.2 6 91
+ 0.573254 4 2 ack 40 ------- 1 4.2 2.3 6 95
- 0.573254 4 2 ack 40 ------- 1 4.2 2.3 6 95
r 0.577172 1 2 tcp 1040 ------- 1 1.1 2.1 3 92
+ 0.577172 2 1 ack 40 ------- 1 2.1 1.1 3 96
- 0.577172 2 1 ack 40 ------- 1 2.1 1.1 3 96
r 0.578024 1 4 tcp 1040 ------- 1 1.3 4.1 6 93
+ 0.578024 4 1 ack 40 ------- 1 4.1 1.3 6 97
- 0.578024 4 1 ack 40 ------- 1 4.1 1.3 6 97
r 0.580827 4 2 ack 40 ------- 1 4.2 2.3 5 94
r 0.583256 4 2 ack 40 ------- 1 4.2 2.3 6 95
+ 0.585022 0 4 tcp 1040 ---A--- 1 0.3 4.0 3 98
- 0.585022 0 4 tcp 1040 ---A--- 1 0.3 4.0 3 98
r 0.587174 2 1 ack 40 ------- 1 2.1 1.1 3 96
r 0.588026 4 1 ack 40 ------- 1 4.1 1.3 6 97
+ 0.593538 0 1 tcp 1040 ------- 1 0.0 1.0 4 99
- 0.593538 0 1 tcp 1040 ------- 1 0.0 1.0 4 99
r 0.595064 0 4 tcp 1040 ---A--- 1 0.3 4.0 3 98
+ 0.595064 4 0 ack 40 ------- 1 4.0 0.3 3 100
- 0.595064 4 0 ack 40 ------- 1 4.0 0.3 3 100
r 0.60358 0 1 tcp 1040 ------- 1 0.0 1.0 4 99
+ 0.60358 1 0 ack 40 ------- 1 1.0 0.0 4 101
- 0.60358 1 0 ack 40 ------- 1 1.0 0.0 4 101
r 0.605066 4 0 ack 40 ------- 1 4.0 0.3 3 100
+ 0.605066 0 4 tcp 1040 ------- 1 0.3 4.0 4 102
- 0.605066 0 4 tcp 1040 ------- 1 0.3 4.0 4 102
r 0.613581 1 0 ack 40 ------- 1 1.0 0.0 4 101
r 0.615107 0 4 tcp 1040 ------- 1 0.3 4.0 4 102
+ 0.615107 4 0 ack 40 ------- 1 4.0 0.3 4 103
- 0.615107 4 0 ack 40 ------- 1 4.0 0.3 4 103
r 0.625109 4 0 ack 40 ------- 1 4.0 0.3 4 103
+ 0.630289 0 4 tcp 1040 ------- 1 0.3 4.0 5 104
- 0.630289 0 4 tcp 1040 ------- 1 0.3 4.0 5 104
+ 0.638115 1 2 tcp 1040 ------- 1 1.1 2.1 4 105
- 0.638115 1 2 tcp 1040 ------- 1 1.1 2.1 4 105
r 0.64033 0 4 tcp 1040 ------- 1 0.3 4.0 5 104
+ 0.64033 4 0 ack 40 ------- 1 4.0 0.3 5 106
- 0.64033 4 0 ack 40 ------- 1 4.0 0.3 5 106
r 0.648156 1 2 tcp 1040 ------- 1 1.1 2.1 4 105
+ 0.648156 2 1 ack 40 ------- 1 2.1 1.1 4 107
- 0.648156 2 1 ack 40 ------- 1 2.1 1.1 4 107
r 0.650332 4 0 ack 40 ------- 1 4.0 0.3 5 106
+ 0.65648 0 1 tcp 1040 ------- 1 0.0 1.0 5 108
- 0.65648 0 1 tcp 1040 ------- 1 0.0 1.0 5 108
r 0.658158 2 1 ack 40 ------- 1 2.1 1.1 4 107
+ 0.661001 2 3 tcp 1040 ------- 1 2.2 3.2 4 109
- 0.661001 2 3 tcp 1040 ------- 1 2.2 3.2 4 109
r 0.666522 0 1 tcp 1040 ------- 1 0.0 1.0 5 108
+ 0.666522 1 0 ack 40 ------- 1 1.0 0.0 5 110
- 0.666522 1 0 ack 40 ------- 1 1.0 0.0 5 110
r 0.671042 2 3 tcp 1040 ------- 1 2.2 3.2 4 109
+ 0.671042 3 2 ack 40 ------- 1 3.2 2.2 4 111
- 0.671042 3 2 ack 40 ------- 1 3.2 2.2 4 111
+ 0.671221 2 3 tcp 1040 ------- 1 2.2 3.2 5 112
- 0.671221 2 3 tcp 1040 ------- 1 2.2 3.2 5 112
r 0.676524 1 0 ack 40 ------- 1 1.0 0.0 5 110
+ 0.677011 0 1 tcp 1040 ------- 1 0.0 1.0 6 113
- 0.677011 0 1 tcp 1040 ------- 1 0.0 1.0 6 113
+ 0.67713 0 3 tcp 1040 ------- 1 0.2 3.0 7 114
- 0.67713 0 3 tcp 1040 ------- 1 0.2 3.0 7 114
r 0.681044 3 2 ack 40 ------- 1 3.2 2.2 4 111
r 0.681262 2 3 tcp 1040 ------- 1 2.2 3.2 5 112
+ 0.681262 3 2 ack 40 ------- 1 3.2 2.2 5 115
- 0.681262 3 2 ack 40 ------- 1 3.2 2.2 5 115
r 0.687052 0 1 tcp 1040 ------- 1 0.0 1.0 6 113
+ 0.687052 1 0 ack 40 ------- 1 1.0 0.0 6 116
- 0.687052 1 0 ack 40 ------- 1 1.0 0.0 6 116
r 0.687172 0 3 tcp 1040 ------- 1 0.2 3.0 7 114
+ 0.687172 3 0 ack 40 ------- 1 3.0 0.2 7 117
- 0.687172 3 0 ack 40 ------- 1 3.0 0.2 7 117
+ 0.690404 0 1 tcp 1040 ------- 1 0.0 1.0 7 118
- 0.690404 0 1 tcp 1040 ------- 1 0.0 1.0 7 118
r 0.691264 3 2 ack 40 ------- 1 3.2 2.2 5 115
r 0.697054 1 0 ack 40 ------- 1 1.0 0.0 6 116
r 0.697173 3 0 ack 40 ------- 1 3.0 0.2 7 117
r 0.700446 0 1 tcp 1040 ------- 1 0.0 1.0 7 118
+ 0.700446 1 0 ack 40 ------- 1 1.0 0.0 7 119
- 0.700446 1 0 ack 40 ------- 1 1.0 0.0 7 119
+ 0.70296 2 3 tcp 1040 ------- 1 2.2 3.2 6 120
- 0.70296 2 3 tcp 1040 ------- 1 2.2 3.2 6 120
r 0.710447 1 0 ack 40 ------- 1 1.0 0.0 7 119
r 0.713002 2 3 tcp 1040 ------- 1 2.2 3.2 6 120
+ 0.713002 3 2 ack 40 ------- 1 3.2 2.2 6 121
- 0.713002 3 2 ack 40 ------- 1 3.2 2.2 6 121
+ 0.716135 1 3 tcp 1040 ------- 1 1.2 3.1 7 122
- 0.716135 1 3 tcp 1040 ------- 1 1.2 3.1 7 122
+ 0.716749 0 4 tcp 1040 ------- 1 0.3 4.0 6 123
- 0.716749 0 4 tcp 1040 ------- 1 0.3 4.0 6 123
+ 0.721078 0 1 tcp 1040 ------- 1 0.0 1.0 8 124
- 0.721078 0 1 tcp 1040 ------- 1 0.0 1.0 8 124
r 0.723004 3 2 ack 40 ------- 1 3.2 2.2 6 121
+ 0.725024 2 3 tcp 1040 ------- 1 2.2 3.2 7 125
- 0.725024 2 3 tcp 1040 ------- 1 2.2 3.2 7 125
r 0.726177 1 3 tcp 1040 ------- 1 1.2 3.1 7 122
+ 0.726177 3 1 ack 40 ------- 1 3.1 1.2 7 126
- 0.726177 3 1 ack 40 ------- 1 3.1 1.2 7 126
r 0.72679 0 4 tcp 1040 ------- 1 0.3 4.0 6 123
+ 0.72679 4 0 ack 40 ------- 1 4.0 0.3 6 127
- 0.72679 4 0 ack 40 ------- 1 4.0 0.3 6 127
+ 0.730555 0 3 tcp 1040 ------- 1 0.2 3.0 8 128
- 0.730555 0 3 tcp 1040 ------- 1 0.2 3.0 8 128
r 0.73112 0 1 tcp 1040 ------- 1 0.0 1.0 8 124
+ 0.73112 1 0 ack 40 ------- 1 1.0 0.0 8 129
- 0.73112 1 0 ack 40 ------- 1 1.0 0.0 8 129
r 0.735065 2 3 tcp 1040 ------- 1 2.2 3.2 7 125
+ 0.735065 3 2 ack 40 ------- 1 3.2 2.2 7 130
- 0.735065 3 2 ack 40 ------- 1 3.2 2.2 7 130
r 0.736178 3 1 ack 40 ------- 1 3.1 1.2 7 126
r 0.736792 4 0 ack 40 ------- 1 4.0 0.3 6 127
r 0.740596 0 3 tcp 1040 ------- 1 0.2 3.0 8 128
+ 0.740596 3 0 ack 40 ------- 1 3.0 0.2 8 131
- 0.740596 3 0 ack 40 ------- 1 3.0 0.2 8 131
r 0.741122 1 0 ack 40 ------- 1 1.0 0.0 8 129
+ 0.741464 0 1 tcp 1040 ------- 1 0.0 1.0 9 132
- 0.741464 0 1 tcp 1040 ------- 1 0.0 1.0 9 132
r 0.745067 3 2 ack 40 ------- 1 3.2 2.2 7 130
+ 0.749387 2 3 tcp 1040 ------- 1 2.2 3.2 8 133
- 0.749387 2 3 tcp 1040 ------- 1 2.2 3.2 8 133
r 0.750598 3 0 ack 40 ------- 1 3.0 0.2 8 131
r 0.751505 0 1 tcp 1040 ------- 1 0.0 1.0 9 132
+ 0.751505 1 0 ack 40 ------- 1 1.0 0.0 9 134
- 0.751505 1 0 ack 40 ------- 1 1.0 0.0 9 134
+ 0.758086 0 2 tcp 1040 ---A--- 1 0.1 2.0 2 135
- 0.758086 0 2 tcp 1040 ---A--- 1 0.1 2.0 2 135
r 0.759428 2 3 tcp 1040 ------- 1 2.2 3.2 8 133
+ 0.759428 3 2 ack 40 ------- 1 3.2 2.2 8 136
- 0.759428 3 2 ack 40 ------- 1 3.2 2.2 8 136
r 0.761507 1 0 ack 40 ------- 1 1.0 0.0 9 134
r 0.768128 0 2 tcp 1040 ---A--- 1 0.1 2.0 2 135
+ 0.768128 2 0 ack 40 ------- 1 2.0 0.1 2 137
- 0.768128 2 0 ack 40 ------- 1 2.0 0.1 2 137
r 0.76943 3 2 ack 40 ------- 1 3.2 2.2 8 136
+ 0.771573 0 3 tcp 1040 ------- 1 0.2 3.0 9 138
- 0.771573 0 3 tcp 1040 ------- 1 0.2 3.0 9 138
+ 0.775015 0 4 tcp 1040 ------- 1 0.3 4.0 7 139
- 0.775015 0 4 tcp 1040 ------- 1 0.3 4.0 7 139
r 0.77813 2 0 ack 40 ------- 1 2.0 0.1 2 137
r 0.781615 0 3 tcp 1040 ------- 1 0.2 3.0 9 138
+ 0.781615 3 0 ack 40 ------- 1 3.0 0.2 9 140
- 0.781615 3 0 ack 40 ------- 1 3.0 0.2 9 140
r 0.785057 0 4 tcp 1040 ------- 1 0.3 4.0 7 139
+ 0.785057 4 0 ack 40 ------- 1 4.0 0.3 7 141
- 0.785057 4 0 ack 40 ------- 1 4.0 0.3 7 141
r 0.791617 3 0 ack 40 ------- 1 3.0 0.2 9 140
r 0.795058 4 0 ack 40 ------- 1 4.0 0.3 7 141
+ 0.802511 2 4 tcp 1040 ---A--- 1 2.3 4.2 7 142
- 0.802511 2 4 tcp 1040 ---A--- 1 2.3 4.2 7 142
r 0.812552 2 4 tcp 1040 ---A--- 1 2.3 4.2 7 142
+ 0.812552 4 2 ack 40 ------- 1 4.2 2.3 7 143
- 0.812552 4 2 ack 40 ------- 1 4.2 2.3 7 143
+ 0.812843 3 4 tcp 1040 ---A--- 1 3.3 4.3 4 144
- 0.812843 3 4 tcp 1040 ---A--- 1 3.3 4.3 4 144
+ 0.818577 0 2 tcp 1040 ------- 1 0.1 2.0 3 145
- 0.818577 0 2 tcp 1040 ------- 1 0.1 2.0 3 145
+ 0.819401 1 3 tcp 1040 ------- 1 1.2 3.1 8 146
- 0.819401 1 3 tcp 1040 ------- 1 1.2 3.1 8 146
r 0.822554 4 2 ack 40 ------- 1 4.2 2.3 7 143
r 0.822885 3 4 tcp 1040 ---A--- 1 3.3 4.3 4 144
+ 0.822885 4 3 ack 40 ------- 1 4.3 3.3 4 147
- 0.822885 4 3 ack 40 ------- 1 4.3 3.3 4 147
r 0.828619 0 2 tcp 1040 ------- 1 0.1 2.0 3 145
+ 0.828619 2 0 ack 40 ------- 1 2.0 0.1 3 148
- 0.828619 2 0 ack 40 ------- 1 2.0 0.1 3 148
+ 0.828619 1 3 tcp 1040 ------- 1 1.2 3.1 9 149
- 0.828619 1 3 tcp 1040 ------- 1 1.2 3.1 9 149
r 0.829443 1 3 tcp 1040 ------- 1 1.2 3.1 8 146
+ 0.829443 3 1 ack 40 ------- 1 3.1 1.2 8 150
- 0.829443 3 1 ack 40 ------- 1 3.1 1.2 8 150
r 0.832887 4 3 ack 40 ------- 1 4.3 3.3 4 147
r 0.838621 2 0 ack 40 ------- 1 2.0 0.1 3 148
r 0.838661 1 3 tcp 1040 ------- 1 1.2 3.1 9 149
+ 0.838661 3 1 ack 40 ------- 1 3.1 1.2 9 151
- 0.838661 3 1 ack 40 ------- 1 3.1 1.2 9 151
+ 0.839434 2 3 tcp 1040 ------- 1 2.2 3.2 9 152
- 0.839434 2 3 tcp 1040 ------- 1 2.2 3.2 9 152
r 0.839444 3 1 ack 40 ------- 1 3.1 1.2 8 150
r 0.848663 3 1 ack 40 ------- 1 3.1 1.2 9 151
r 0.849476 2 3 tcp 1040 ------- 1 2.2 3.2 9 152
+ 0.849476 3 2 ack 40 ------- 1 3.2 2.2 9 153
- 0.849476 3 2 ack 40 ------- 1 3.2 2.2 9 153
+ 0.854863 0 2 tcp 1040 ------- 1 0.1 2.0 4 154
- 0.854863 0 2 tcp 1040 ------- 1 0.1 2.0 4 154
r 0.859477 3 2 ack 40 ------- 1 3.2 2.2 9 153
r 0.864904 0 2 tcp 1040 ------- 1 0.1 2.0 4 154
+ 0.864904 2 0 ack 40 ------- 1 2.0 0.1 4 155
- 0.864904 2 0 ack 40 ------- 1 2.0 0.1 4 155
+ 0.867289 1 4 tcp 1040 ---A--- 1 1.3 4.1 7 156
- 0.867289 1 4 tcp 1040 ---A--- 1 1.3 4.1 7 156
+ 0.870029 0 3 tcp 1040 ------- 1 0.2 3.0 10 157
- 0.870029 0 3 tcp 1040 ------- 1 0.2 3.0 10 157
r 0.874906 2 0 ack 40 ------- 1 2.0 0.1 4 155
r 0.877331 1 4 tcp 1040 ---A--- 1 1.3 4.1 7 156
+ 0.877331 4 1 ack 40 ------- 1 4.1 1.3 7 158
- 0.877331 4 1 ack 40 ------- 1 4.1 1.3 7 158
r 0.880071 0 3 tcp 1040 ------- 1 0.2 3.0 10 157
+ 0.880071 3 0 ack 40 ------- 1 3.0 0.2 10 159
- 0.880071 3 0 ack 40 ------- 1 3.0 0.2 10 159
+ 0.880929 1 2 tcp 1040 ---A--- 1 1.1 2.1 5 160
- 0.880929 1 2 tcp 1040 ---A--- 1 1.1 2.1 5 160
r 0.887333 4 1 ack 40 ------- 1 4.1 1.3 7 158
r 0.890072 3 0 ack 40 ------- 1 3.0 0.2 10 159
r 0.890971 1 2 tcp 1040 ---A--- 1 1.1 2.1 5 160
+ 0.890971 2 1 ack 40 ------- 1 2.1 1.1 5 161
- 0.890971 2 1 ack 40 ------- 1 2.1 1.1 5 161
r 0.900973 2 1 ack 40 ------- 1 2.1 1.1 5 161
+ 0.900973 1 2 tcp 1040 ------- 1 1.1 2.1 6 162
- 0.900973 1 2 tcp 1040 ------- 1 1.1 2.1 6 162
+ 0.906354 1 2 tcp 1040 ------- 1 1.1 2.1 7 163
- 0.906354 1 2 tcp 1040 ------- 1 1.1 2.1 7 163
r 0.911014 1 2 tcp 1040 ------- 1 1.1 2.1 6 162
+ 0.911014 2 1 ack 40 ------- 1 2.1 1.1 6 164
- 0.911014 2 1 ack 40 ------- 1 2.1 1.1 6 164
r 0.916395 1 2 tcp 1040 ------- 1 1.1 2.1 7 163
+ 0.916395 2 1 ack 40 ------- 1 2.1 1.1 7 165
- 0.916395 2 1 ack 40 ------- 1 2.1 1.1 7 165
r 0.921016 2 1 ack 40 ------- 1 2.1 1.1 6 164
+ 0.923041 3 4 tcp 1040 ------- 1 3.3 4.3 5 166
- 0.923041 3 4 tcp 1040 ------- 1 3.3 4.3 5 166
r 0.926397 2 1 ack 40 ------- 1 2.1 1.1 7 165
+ 0.927942 1 2 tcp 1040 ------- 1 1.1 2.1 8 167
- 0.927942 1 2 tcp 1040 ------- 1 1.1 2.1 8 167
+ 0.931183 0 1 tcp 1040 ------- 1 0.0 1.0 10 168
- 0.931183 0 1 tcp 1040 ------- 1 0.0 1.0 10 168
r 0.933083 3 4 tcp 1040 ------- 1 3.3 4.3 5 166
+ 0.933083 4 3 ack 40 ------- 1 4.3 3.3 5 169
- 0.933083 4 3 ack 40 ------- 1 4.3 3.3 5 169
r 0.937983 1 2 tcp 1040 ------- 1 1.1 2.1 8 167
+ 0.937983 2 1 ack 40 ------- 1 2.1 1.1 8 170
- 0.937983 2 1 ack 40 ------- 1 2.1 1.1 8 170
+ 0.940152 2 3 tcp 1040 ------- 1 2.2 3.2 10 171
- 0.940152 2 3 tcp 1040 ------- 1 2.2 3.2 10 171
r 0.941225 0 1 tcp 1040 ------- 1 0.0 1.0 10 168
+ 0.941225 1 0 ack 40 ------- 1 1.0 0.0 10 172
- 0.941225 1 0 ack 40 ------- 1 1.0 0.0 10 172
r 0.943084 4 3 ack 40 ------- 1 4.3 3.3 5 169
r 0.947985 2 1 ack 40 ------- 1 2.1 1.1 8 170
r 0.950194 2 3 tcp 1040 ------- 1 2.2 3.2 10 171
+ 0.950194 3 2 ack 40 ------- 1 3.2 2.2 10 173
- 0.950194 3 2 ack 40 ------- 1 3.2 2.2 10 173
r 0.951227 1 0 ack 40 ------- 1 1.0 0.0 10 172
+ 0.959256 0 1 tcp 1040 ------- 1 0.0 1.0 11 174
- 0.959256 0 1 tcp 1040 ------- 1 0.0 1.0 11 174
r 0.960195 3 2 ack 40 ------- 1 3.2 2.2 10 173
r 0.969298 0 1 tcp 1040 ------- 1 0.0 1.0 11 174
+ 0.969298 1 0 ack 40 ------- 1 1.0 0.0 11 175
- 0.969298 1 0 ack 40 ------- 1 1.0 0.0 11 175
+ 0.973611 0 2 tcp 1040 ------- 1 0.1 2.0 5 176
- 0.973611 0 2 tcp 1040 ------- 1 0.1 2.0 5 176
r 0.979299 1 0 ack 40 ------- 1 1.0 0.0 11 175
+ 0.982875 0 1 tcp 1040 ------- 1 0.0 1.0 12 177
- 0.982875 0 1 tcp 1040 ------- 1 0.0 1.0 12 177
+ 0.983432 0 3 tcp 1040 ------- 1 0.2 3.0 11 178
- 0.983432 0 3 tcp 1040 ------- 1 0.2 3.0 11 178
r 0.983652 0 2 tcp 1040 ------- 1 0.1 2.0 5 176
+ 0.983652 2 0 ack 40 ------- 1 2.0 0.1 5 179
- 0.983652 2 0 ack 40 ------- 1 2.0 0.1 5 179
+ 0.988708 2 3 tcp 1040 ------- 1 2.2 3.2 11 180
- 0.988708 2 3 tcp 1040 ------- 1 2.2 3.2 11 180
r 0.992917 0 1 tcp 1040 ------- 1 0.0 1.0 12 177
+ 0.992917 1 0 ack 40 ------- 1 1.0 0.0 12 181
- 0.992917 1 0 ack 40 ------- 1 1.0 0.0 12 181
r 0.993474 0 3 tcp 1040 ------- 1 0.2 3.0 11 178
+ 0.993474 3 0 ack 40 ------- 1 3.0 0.2 11 182
- 0.993474 3 0 ack 40 ------- 1 3.0 0.2 11 182
r 0.993654 2 0 ack 40 ------- 1 2.0 0.1 5 179
r 0.998749 2 3 tcp 1040 ------- 1 2.2 3.2 11 180
+ 0.998749 3 2 ack 40 ------- 1 3.2 2.2 11 183
- 0.998749 3 2 ack 40 ------- 1 3.2 2.2 11 183
r 1.002919 1 0 ack 40 ------- 1 1.0 0.0 12 181
r 1.003475 3 0 ack 40 ------- 1 3.0 0.2 11 182
r 1.008751 3 2 ack 40 ------- 1 3.2 2.2 11 183
+ 1.03886 0 2 tcp 1040 ------- 1 0.1 2.0 6 184
- 1.03886 0 2 tcp 1040 ------- 1 0.1 2.0 6 184
r 1.048901 0 2 tcp 1040 ------- 1 0.1 2.0 6 184
+ 1.048901 2 0 ack 40 ------- 1 2.0 0.1 6 185
- 1.048901 2 0 ack 40 ------- 1 2.0 0.1 6 185
+ 1.050886 2 4 tcp 1040 ---A--- 1 2.3 4.2 8 186
- 1.050886 2 4 tcp 1040 ---A--- 1 2.3 4.2 8 186
r 1.058903 2 0 ack 40 ------- 1 2.0 0.1 6 185
r 1.060927 2 4 tcp 1040 ---A--- 1 2.3 4.2 8 186
+ 1.060927 4 2 ack 40 ------- 1 4.2 2.3 8 187
- 1.060927 4 2 ack 40 ------- 1 4.2 2.3 8 187
+ 1.062446 0 1 tcp 1040 ------- 1 0.0 1.0 13 188
- 1.062446 0 1 tcp 1040 ------- 1 0.0 1.0 13 188
r 1.070929 4 2 ack 40 ------- 1 4.2 2.3 8 187
r 1.072488 0 1 tcp 1040 ------- 1 0.0 1.0 13 188
+ 1.072488 1 0 ack 40 ------- 1 1.0 0.0 13 189
- 1.072488 1 0 ack 40 ------- 1 1.0 0.0 13 189
r 1.082489 1 0 ack 40 ------- 1 1.0 0.0 13 189
+ 1.099522 3 4 tcp 1040 ------- 1 3.3 4.3 6 190
- 1.099522 3 4 tcp 1040 ------- 1 3.3 4.3 6 190
r 1.109564 3 4 tcp 1040 ------- 1 3.3 4.3 6 190
+ 1.109564 4 3 ack 40 ------- 1 4.3 3.3 6 191
- 1.109564 4 3 ack 40 ------- 1 4.3 3.3 6 191
r 1.119565 4 3 ack 40 ------- 1 4.3 3.3 6 191
+ 1.120977 0 2 tcp 1040 ------- 1 0.1 2.0 7 192
- 1.120977 0 2 tcp 1040 ------- 1 0.1 2.0 7 192
r 1.131019 0 2 tcp 1040 ------- 1 0.1 2.0 7 192
+ 1.131019 2 0 ack 40 ------- 1 2.0 0.1 7 193
- 1.131019 2 0 ack 40 ------- 1 2.0 0.1 7 193
+ 1.131578 0 2 tcp 1040 ------- 1 0.1 2.0 8 194
- 1.131578 0 2 tcp 1040 ------- 1 0.1 2.0 8 194
+ 1.133617 2 4 tcp 1040 ------- 1 2.3 4.2 9 195
- 1.133617 2 4 tcp 1040 ------- 1 2.3 4.2 9 195
+ 1.140639 0 3 tcp 1040 ------- 1 0.2 3.0 12 196
- 1.140639 0 3 tcp 1040 ------- 1 0.2 3.0 12 196
r 1.14102 2 0 ack 40 ------- 1 2.0 0.1 7 193
r 1.14162 0 2 tcp 1040 ------- 1 0.1 2.0 8 194
+ 1.14162 2 0 ack 40 ------- 1 2.0 0.1 8 197
- 1.14162 2 0 ack 40 ------- 1 2.0 0.1 8 197
r 1.143659 2 4 tcp 1040 ------- 1 2.3 4.2 9 195
+ 1.143659 4 2 ack 40 ------- 1 4.2 2.3 9 198
- 1.143659 4 2 ack 40 ------- 1 4.2 2.3 9 198
r 1.150681 0 3 tcp 1040 ------- 1 0.2 3.0 12 196
+ 1.150681 3 0 ack 40 ------- 1 3.0 0.2 12 199
- 1.150681 3 0 ack 40 ------- 1 3.0 0.2 12 199
r 1.151621 2 0 ack 40 ------- 1 2.0 0.1 8 197
r 1.15366 4 2 ack 40 ------- 1 4.2 2.3 9 198
r 1.160682 3 0 ack 40 ------- 1 3.0 0.2 12 199
+ 1.170375 1 3 tcp 1040 ---A--- 1 1.2 3.1 10 200
- 1.170375 1 3 tcp 1040 ---A--- 1 1.2 3.1 10 200
+ 1.172946 0 1 tcp 1040 ------- 1 0.0 1.0 14 201
- 1.172946 0 1 tcp 1040 ------- 1 0.0 1.0 14 201
r 1.180417 1 3 tcp 1040 ---A--- 1 1.2 3.1 10 200
+ 1.180417 3 1 ack 40 ------- 1 3.1 1.2 10 202
- 1.180417 3 1 ack 40 ------- 1 3.1 1.2 10 202
r 1.182987 0 1 tcp 1040 ------- 1 0.0 1.0 14 201
+ 1.182987 1 0 ack 40 ------- 1 1.0 0.0 14 203
- 1.182987 1 0 ack 40 ------- 1 1.0 0.0 14 203
r 1.190419 3 1 ack 40 ------- 1 3.1 1.2 10 202
r 1.192989 1 0 ack 40 ------- 1 1.0 0.0 14 203
