+ 0.214842 2 3 tcp 40 ------- 1 2.2 3.2 0 0
- 0.214842 2 3 tcp 40 ------- 1 2.2 3.2 0 0
+ 0.217456 2 4 tcp 40 ------- 1 2.3 4.2 0 1
- 0.217456 2 4 tcp 40 ------- 1 2.3 4.2 0 1
+ 0.22144 0 1 tcp 40 ------- 1 0.0 1.0 0 2
- 0.22144 0 1 tcp 40 ------- 1 0.0 1.0 0 2
r 0.224874 2 3 tcp 40 ------- 1 2.2 3.2 0 0
+ 0.224874 3 2 ack 40 ------- 1 3.2 2.2 0 3
- 0.224874 3 2 ack 40 ------- 1 3.2 2.2 0 3
r 0.227488 2 4 tcp 40 ------- 1 2.3 4.2 0 1
+ 0.227488 4 2 ack 40 ------- 1 4.2 2.3 0 4
- 0.227488 4 2 ack 40 ------- 1 4.2 2.3 0 4
r 0.231472 0 1 tcp 40 ------- 1 0.0 1.0 0 2
+ 0.231472 1 0 ack 40 ------- 1 1.0 0.0 0 5
- 0.231472 1 0 ack 40 ------- 1 1.0 0.0 0 5
r 0.234906 3 2 ack 40 ------- 1 3.2 2.2 0 3
+ 0.234906 2 3 tcp 1040 ------- 1 2.2 3.2 1 6
- 0.234906 2 3 tcp 1040 ------- 1 2.2 3.2 1 6
+ 0.236773 1 4 tcp 40 ------- 1 1.3 4.1 0 7
- 0.236773 1 4 tcp 40 ------- 1 1.3 4.1 0 7
r 0.23752 4 2 ack 40 ------- 1 4.2 2.3 0 4
+ 0.23752 2 4 tcp 1040 ------- 1 2.3 4.2 1 8
- 0.23752 2 4 tcp 1040 ------- 1 2.3 4.2 1 8
+ 0.23752 2 4 tcp 1040 ------- 1 2.3 4.2 2 9
- 0.238352 2 4 tcp 1040 ------- 1 2.3 4.2 2 9
r 0.241504 1 0 ack 40 ------- 1 1.0 0.0 0 5
+ 0.241504 0 1 tcp 1040 ------- 1 0.0 1.0 1 10
- 0.241504 0 1 tcp 1040 ------- 1 0.0 1.0 1 10
r 0.245738 2 3 tcp 1040 ------- 1 2.2 3.2 1 6
+ 0.245738 3 2 ack 40 ------- 1 3.2 2.2 1 11
- 0.245738 3 2 ack 40 ------- 1 3.2 2.2 1 11
r 0.246805 1 4 tcp 40 ------- 1 1.3 4.1 0 7
+ 0.246805 4 1 ack 40 ------- 1 4.1 1.3 0 12
- 0.246805 4 1 ack 40 ------- 1 4.1 1.3 0 12
r 0.248352 2 4 tcp 1040 ------- 1 2.3 4.2 1 8
+ 0.248352 4 2 ack 40 ------- 1 4.2 2.3 1 13
- 0.248352 4 2 ack 40 ------- 1 4.2 2.3 1 13
r 0.249184 2 4 tcp 1040 ------- 1 2.3 4.2 2 9
+ 0.249184 4 2 ack 40 ------- 1 4.2 2.3 2 14
- 0.249184 4 2 ack 40 ------- 1 4.2 2.3 2 14
r 0.252336 0 1 tcp 1040 ------- 1 0.0 1.0 1 10
+ 0.252336 1 0 ack 40 ------- 1 1.0 0.0 1 15
- 0.252336 1 0 ack 40 ------- 1 1.0 0.0 1 15
r 0.25577 3 2 ack 40 ------- 1 3.2 2.2 1 11
r 0.256837 4 1 ack 40 ------- 1 4.1 1.3 0 12
+ 0.256837 1 4 tcp 1040 ------- 1 1.3 4.1 1 16
- 0.256837 1 4 tcp 1040 ------- 1 1.3 4.1 1 16
+ 0.256837 1 4 tcp 1040 ------- 1 1.3 4.1 2 17
- 0.257669 1 4 tcp 1040 ------- 1 1.3 4.1 2 17
r 0.258384 4 2 ack 40 ------- 1 4.2 2.3 1 13
r 0.259216 4 2 ack 40 ------- 1 4.2 2.3 2 14
+ 0.260396 0 1 tcp 1040 ------- 1 0.0 1.0 2 18
- 0.260396 0 1 tcp 1040 ------- 1 0.0 1.0 2 18
+ 0.260728 2 4 tcp 1040 ------- 1 2.3 4.2 3 19
- 0.260728 2 4 tcp 1040 ------- 1 2.3 4.2 3 19
r 0.262368 1 0 ack 40 ------- 1 1.0 0.0 1 15
+ 0.265653 1 2 tcp 40 ------- 1 1.1 2.1 0 20
- 0.265653 1 2 tcp 40 ------- 1 1.1 2.1 0 20
r 0.267669 1 4 tcp 1040 ------- 1 1.3 4.1 1 16
+ 0.267669 4 1 ack 40 ------- 1 4.1 1.3 1 21
- 0.267669 4 1 ack 40 ------- 1 4.1 1.3 1 21
r 0.268501 1 4 tcp 1040 ------- 1 1.3 4.1 2 17
+ 0.268501 4 1 ack 40 ------- 1 4.1 1.3 2 22
- 0.268501 4 1 ack 40 ------- 1 4.1 1.3 2 22
r 0.271228 0 1 tcp 1040 ------- 1 0.0 1.0 2 18
+ 0.271228 1 0 ack 40 ------- 1 1.0 0.0 2 23
- 0.271228 1 0 ack 40 ------- 1 1.0 0.0 2 23
r 0.27156 2 4 tcp 1040 ------- 1 2.3 4.2 3 19
+ 0.27156 4 2 ack 40 ------- 1 4.2 2.3 3 24
- 0.27156 4 2 ack 40 ------- 1 4.2 2.3 3 24
r 0.275685 1 2 tcp 40 ------- 1 1.1 2.1 0 20
+ 0.275685 2 1 ack 40 ------- 1 2.1 1.1 0 25
- 0.275685 2 1 ack 40 ------- 1 2.1 1.1 0 25
+ 0.276332 1 3 tcp 40 ------- 1 1.2 3.1 0 26
- 0.276332 1 3 tcp 40 ------- 1 1.2 3.1 0 26
r 0.277701 4 1 ack 40 ------- 1 4.1 1.3 1 21
r 0.278533 4 1 ack 40 ------- 1 4.1 1.3 2 22
r 0.28126 1 0 ack 40 ------- 1 1.0 0.0 2 23
r 0.281592 4 2 ack 40 ------- 1 4.2 2.3 3 24
r 0.285717 2 1 ack 40 ------- 1 2.1 1.1 0 25
+ 0.285717 1 2 tcp 1040 ------- 1 1.1 2.1 1 27
- 0.285717 1 2 tcp 1040 ------- 1 1.1 2.1 1 27
r 0.286364 1 3 tcp 40 ------- 1 1.2 3.1 0 26
+ 0.286364 3 1 ack 40 ------- 1 3.1 1.2 0 28
- 0.286364 3 1 ack 40 ------- 1 3.1 1.2 0 28
+ 0.289481 0 4 tcp 40 ------- 1 0.3 4.0 0 29
- 0.289481 0 4 tcp 40 ------- 1 0.3 4.0 0 29
r 0.296396 3 1 ack 40 ------- 1 3.1 1.2 0 28
+ 0.296396 1 3 tcp 1040 ------- 1 1.2 3.1 1 30
- 0.296396 1 3 tcp 1040 ------- 1 1.2 3.1 1 30
+ 0.296396 1 3 tcp 1040 ------- 1 1.2 3.1 2 31
r 0.296549 1 2 tcp 1040 ------- 1 1.1 2.1 1 27
+ 0.296549 2 1 ack 40 ------- 1 2.1 1.1 1 32
- 0.296549 2 1 ack 40 ------- 1 2.1 1.1 1 32
- 0.297228 1 3 tcp 1040 ------- 1 1.2 3.1 2 31
r 0.299513 0 4 tcp 40 ------- 1 0.3 4.0 0 29
+ 0.299513 4 0 ack 40 ------- 1 4.0 0.3 0 33
- 0.299513 4 0 ack 40 ------- 1 4.0 0.3 0 33
+ 0.305343 0 2 tcp 40 ------- 1 0.1 2.0 0 34
- 0.305343 0 2 tcp 40 ------- 1 0.1 2.0 0 34
r 0.306581 2 1 ack 40 ------- 1 2.1 1.1 1 32
r 0.307228 1 3 tcp 1040 ------- 1 1.2 3.1 1 30
+ 0.307228 3 1 ack 40 ------- 1 3.1 1.2 1 35
- 0.307228 3 1 ack 40 ------- 1 3.1 1.2 1 35
r 0.30806 1 3 tcp 1040 ------- 1 1.2 3.1 2 31
+ 0.30806 3 1 ack 40 ------- 1 3.1 1.2 2 36
- 0.30806 3 1 ack 40 ------- 1 3.1 1.2 2 36
r 0.309545 4 0 ack 40 ------- 1 4.0 0.3 0 33
+ 0.309545 0 4 tcp 1040 ------- 1 0.3 4.0 1 37
- 0.309545 0 4 tcp 1040 ------- 1 0.3 4.0 1 37
+ 0.309545 0 4 tcp 1040 ------- 1 0.3 4.0 2 38
- 0.310377 0 4 tcp 1040 ------- 1 0.3 4.0 2 38
r 0.315375 0 2 tcp 40 ------- 1 0.1 2.0 0 34
+ 0.315375 2 0 ack 40 ------- 1 2.0 0.1 0 39
- 0.315375 2 0 ack 40 ------- 1 2.0 0.1 0 39
r 0.31726 3 1 ack 40 ------- 1 3.1 1.2 1 35
+ 0.31726 1 3 tcp 1040 ------- 1 1.2 3.1 3 40
- 0.31726 1 3 tcp 1040 ------- 1 1.2 3.1 3 40
r 0.318092 3 1 ack 40 ------- 1 3.1 1.2 2 36
r 0.320377 0 4 tcp 1040 ------- 1 0.3 4.0 1 37
+ 0.320377 4 0 ack 40 ------- 1 4.0 0.3 1 41
- 0.320377 4 0 ack 40 ------- 1 4.0 0.3 1 41
r 0.321209 0 4 tcp 1040 ------- 1 0.3 4.0 2 38
+ 0.321209 4 0 ack 40 ------- 1 4.0 0.3 2 42
- 0.321209 4 0 ack 40 ------- 1 4.0 0.3 2 42
r 0.325407 2 0 ack 40 ------- 1 2.0 0.1 0 39
+ 0.325407 0 2 tcp 1040 ------- 1 0.1 2.0 1 43
- 0.325407 0 2 tcp 1040 ------- 1 0.1 2.0 1 43
r 0.328092 1 3 tcp 1040 ------- 1 1.2 3.1 3 40
+ 0.328092 3 1 ack 40 ------- 1 3.1 1.2 3 44
- 0.328092 3 1 ack 40 ------- 1 3.1 1.2 3 44
r 0.330409 4 0 ack 40 ------- 1 4.0 0.3 1 41
r 0.331241 4 0 ack 40 ------- 1 4.0 0.3 2 42
+ 0.335445 0 3 tcp 40 ------- 1 0.2 3.0 0 45
- 0.335445 0 3 tcp 40 ------- 1 0.2 3.0 0 45
r 0.336239 0 2 tcp 1040 ------- 1 0.1 2.0 1 43
+ 0.336239 2 0 ack 40 ------- 1 2.0 0.1 1 46
- 0.336239 2 0 ack 40 ------- 1 2.0 0.1 1 46
+ 0.337019 1 4 tcp 1040 ------- 1 1.3 4.1 3 47
- 0.337019 1 4 tcp 1040 ------- 1 1.3 4.1 3 47
r 0.338124 3 1 ack 40 ------- 1 3.1 1.2 3 44
r 0.345477 0 3 tcp 40 ------- 1 0.2 3.0 0 45
+ 0.345477 3 0 ack 40 ------- 1 3.0 0.2 0 48
- 0.345477 3 0 ack 40 ------- 1 3.0 0.2 0 48
r 0.346271 2 0 ack 40 ------- 1 2.0 0.1 1 46
r 0.347851 1 4 tcp 1040 ------- 1 1.3 4.1 3 47
+ 0.347851 4 1 ack 40 ------- 1 4.1 1.3 3 49
- 0.347851 4 1 ack 40 ------- 1 4.1 1.3 3 49
+ 0.351311 2 4 tcp 1040 ------- 1 2.3 4.2 4 50
- 0.351311 2 4 tcp 1040 ------- 1 2.3 4.2 4 50
+ 0.352712 3 4 tcp 40 ------- 1 3.3 4.3 0 51
- 0.352712 3 4 tcp 40 ------- 1 3.3 4.3 0 51
r 0.355509 3 0 ack 40 ------- 1 3.0 0.2 0 48
+ 0.355509 0 3 tcp 1040 ------- 1 0.2 3.0 1 52
- 0.355509 0 3 tcp 1040 ------- 1 0.2 3.0 1 52
+ 0.357044 2 3 tcp 1040 ------- 1 2.2 3.2 2 53
- 0.357044 2 3 tcp 1040 ------- 1 2.2 3.2 2 53
r 0.357883 4 1 ack 40 ------- 1 4.1 1.3 3 49
r 0.362143 2 4 tcp 1040 ------- 1 2.3 4.2 4 50
+ 0.362143 4 2 ack 40 ------- 1 4.2 2.3 4 54
- 0.362143 4 2 ack 40 ------- 1 4.2 2.3 4 54
r 0.362744 3 4 tcp 40 ------- 1 3.3 4.3 0 51
+ 0.362744 4 3 ack 40 ------- 1 4.3 3.3 0 55
- 0.362744 4 3 ack 40 ------- 1 4.3 3.3 0 55
r 0.366341 0 3 tcp 1040 ------- 1 0.2 3.0 1 52
+ 0.366341 3 0 ack 40 ------- 1 3.0 0.2 1 56
- 0.366341 3 0 ack 40 ------- 1 3.0 0.2 1 56
r 0.367876 2 3 tcp 1040 ------- 1 2.2 3.2 2 53
+ 0.367876 3 2 ack 40 ------- 1 3.2 2.2 2 57
- 0.367876 3 2 ack 40 ------- 1 3.2 2.2 2 57
r 0.372175 4 2 ack 40 ------- 1 4.2 2.3 4 54
r 0.372776 4 3 ack 40 ------- 1 4.3 3.3 0 55
+ 0.372776 3 4 tcp 1040 ------- 1 3.3 4.3 1 58
- 0.372776 3 4 tcp 1040 ------- 1 3.3 4.3 1 58
r 0.376373 3 0 ack 40 ------- 1 3.0 0.2 1 56
r 0.377908 3 2 ack 40 ------- 1 3.2 2.2 2 57
r 0.383608 3 4 tcp 1040 ------- 1 3.3 4.3 1 58
+ 0.383608 4 3 ack 40 ------- 1 4.3 3.3 1 59
- 0.383608 4 3 ack 40 ------- 1 4.3 3.3 1 59
+ 0.38736 0 3 tcp 1040 ------- 1 0.2 3.0 2 60
- 0.38736 0 3 tcp 1040 ------- 1 0.2 3.0 2 60
+ 0.392966 3 4 tcp 1040 ------- 1 3.3 4.3 2 61
- 0.392966 3 4 tcp 1040 ------- 1 3.3 4.3 2 61
r 0.39364 4 3 ack 40 ------- 1 4.3 3.3 1 59
r 0.398192 0 3 tcp 1040 ------- 1 0.2 3.0 2 60
+ 0.398192 3 0 ack 40 ------- 1 3.0 0.2 2 62
- 0.398192 3 0 ack 40 ------- 1 3.0 0.2 2 62
r 0.403798 3 4 tcp 1040 ------- 1 3.3 4.3 2 61
+ 0.403798 4 3 ack 40 ------- 1 4.3 3.3 2 63
- 0.403798 4 3 ack 40 ------- 1 4.3 3.3 2 63
r 0.408224 3 0 ack 40 ------- 1 3.0 0.2 2 62
r 0.41383 4 3 ack 40 ------- 1 4.3 3.3 2 63
+ 0.423217 0 3 tcp 1040 ------- 1 0.2 3.0 3 64
- 0.423217 0 3 tcp 1040 ------- 1 0.2 3.0 3 64
+ 0.433122 1 2 tcp 1040 ------- 1 1.1 2.1 2 65
- 0.433122 1 2 tcp 1040 ------- 1 1.1 2.1 2 65
r 0.434049 0 3 tcp 1040 ------- 1 0.2 3.0 3 64
+ 0.434049 3 0 ack 40 ------- 1 3.0 0.2 3 66
- 0.434049 3 0 ack 40 ------- 1 3.0 0.2 3 66
+ 0.436382 0 3 tcp 1040 ------- 1 0.2 3.0 4 67
- 0.436382 0 3 tcp 1040 ------- 1 0.2 3.0 4 67
r 0.443954 1 2 tcp 1040 ------- 1 1.1 2.1 2 65
+ 0.443954 2 1 ack 40 ------- 1 2.1 1.1 2 68
- 0.443954 2 1 ack 40 ------- 1 2.1 1.1 2 68
r 0.444081 3 0 ack 40 ------- 1 3.0 0.2 3 66
+ 0.446184 1 4 tcp 1040 ------- 1 1.3 4.1 4 69
- 0.446184 1 4 tcp 1040 ------- 1 1.3 4.1 4 69
r 0.447214 0 3 tcp 1040 ------- 1 0.2 3.0 4 67
+ 0.447214 3 0 ack 40 ------- 1 3.0 0.2 4 70
- 0.447214 3 0 ack 40 ------- 1 3.0 0.2 4 70
+ 0.453695 3 4 tcp 1040 ------- 1 3.3 4.3 3 71
- 0.453695 3 4 tcp 1040 ------- 1 3.3 4.3 3 71
r 0.453986 2 1 ack 40 ------- 1 2.1 1.1 2 68
r 0.457016 1 4 tcp 1040 ------- 1 1.3 4.1 4 69
+ 0.457016 4 1 ack 40 ------- 1 4.1 1.3 4 72
- 0.457016 4 1 ack 40 ------- 1 4.1 1.3 4 72
r 0.457246 3 0 ack 40 ------- 1 3.0 0.2 4 70
r 0.464527 3 4 tcp 1040 ------- 1 3.3 4.3 3 71
+ 0.464527 4 3 ack 40 ------- 1 4.3 3.3 3 73
- 0.464527 4 3 ack 40 ------- 1 4.3 3.3 3 73
r 0.467048 4 1 ack 40 ------- 1 4.1 1.3 4 72
r 0.474559 4 3 ack 40 ------- 1 4.3 3.3 3 73
+ 0.481855 0 1 tcp 1040 ---A--- 1 0.0 1.0 3 74
- 0.481855 0 1 tcp 1040 ---A--- 1 0.0 1.0 3 74
r 0.492687 0 1 tcp 1040 ---A--- 1 0.0 1.0 3 74
+ 0.492687 1 0 ack 40 ------- 1 1.0 0.0 3 75
- 0.492687 1 0 ack 40 ------- 1 1.0 0.0 3 75
+ 0.492915 2 3 tcp 1040 ------- 1 2.2 3.2 3 76
- 0.492915 2 3 tcp 1040 ------- 1 2.2 3.2 3 76
+ 0.495289 0 3 tcp 1040 ------- 1 0.2 3.0 5 77
- 0.495289 0 3 tcp 1040 ------- 1 0.2 3.0 5 77
r 0.502719 1 0 ack 40 ------- 1 1.0 0.0 3 75
r 0.503747 2 3 tcp 1040 ------- 1 2.2 3.2 3 76
+ 0.503747 3 2 ack 40 ------- 1 3.2 2.2 3 78
- 0.503747 3 2 ack 40 ------- 1 3.2 2.2 3 78
r 0.506121 0 3 tcp 1040 ------- 1 0.2 3.0 5 77
+ 0.506121 3 0 ack 40 ------- 1 3.0 0.2 5 79
- 0.506121 3 0 ack 40 ------- 1 3.0 0.2 5 79
+ 0.512694 1 3 tcp 1040 ------- 1 1.2 3.1 4 80
- 0.512694 1 3 tcp 1040 ------- 1 1.2 3.1 4 80
r 0.513779 3 2 ack 40 ------- 1 3.2 2.2 3 78
r 0.516153 3 0 ack 40 ------- 1 3.0 0.2 5 79
+ 0.518159 1 3 tcp 1040 ------- 1 1.2 3.1 5 81
- 0.518159 1 3 tcp 1040 ------- 1 1.2 3.1 5 81
+ 0.519498 0 3 tcp 1040 ------- 1 0.2 3.0 6 82
- 0.519498 0 3 tcp 1040 ------- 1 0.2 3.0 6 82
r 0.523526 1 3 tcp 1040 ------- 1 1.2 3.1 4 80
+ 0.523526 3 1 ack 40 ------- 1 3.1 1.2 4 83
- 0.523526 3 1 ack 40 ------- 1 3.1 1.2 4 83
r 0.528991 1 3 tcp 1040 ------- 1 1.2 3.1 5 81
+ 0.528991 3 1 ack 40 ------- 1 3.1 1.2 5 84
- 0.528991 3 1 ack 40 ------- 1 3.1 1.2 5 84
r 0.53033 0 3 tcp 1040 ------- 1 0.2 3.0 6 82
+ 0.53033 3 0 ack 40 ------- 1 3.0 0.2 6 85
- 0.53033 3 0 ack 40 ------- 1 3.0 0.2 6 85
+ 0.531589 1 4 tcp 1040 ------- 1 1.3 4.1 5 86
- 0.531589 1 4 tcp 1040 ------- 1 1.3 4.1 5 86
r 0.533558 3 1 ack 40 ------- 1 3.1 1.2 4 83
r 0.539023 3 1 ack 40 ------- 1 3.1 1.2 5 84
r 0.540362 3 0 ack 40 ------- 1 3.0 0.2 6 85
r 0.542421 1 4 tcp 1040 ------- 1 1.3 4.1 5 86
+ 0.542421 4 1 ack 40 ------- 1 4.1 1.3 5 87
- 0.542421 4 1 ack 40 ------- 1 4.1 1.3 5 87
+ 0.543946 1 3 tcp 1040 ------- 1 1.2 3.1 6 88
- 0.543946 1 3 tcp 1040 ------- 1 1.2 3.1 6 88
r 0.552453 4 1 ack 40 ------- 1 4.1 1.3 5 87
r 0.554778 1 3 tcp 1040 ------- 1 1.2 3.1 6 88
+ 0.554778 3 1 ack 40 ------- 1 3.1 1.2 6 89
- 0.554778 3 1 ack 40 ------- 1 3.1 1.2 6 89
+ 0.560784 2 4 tcp 1040 ------- 1 2.3 4.2 5 90
- 0.560784 2 4 tcp 1040 ------- 1 2.3 4.2 5 90
+ 0.563213 2 4 tcp 1040 ------- 1 2.3 4.2 6 91
- 0.563213 2 4 tcp 1040 ------- 1 2.3 4.2 6 91
r 0.56481 3 1 ack 40 ------- 1 3.1 1.2 6 89
+ 0.567131 1 2 tcp 1040 ------- 1 1.1 2.1 3 92
- 0.567131 1 2 tcp 1040 ------- 1 1.1 2.1 3 92
+ 0.567983 1 4 tcp 1040 ------- 1 1.3 4.1 6 93
- 0.567983 1 4 tcp 1040 ------- 1 1.3 4.1 6 93
r 0.571616 2 4 tcp 1040 ------- 1 2.3 4.2 5 90
+ 0.571616 4 2 ack 40 ------- 1 4.2 2.3 5 94
- 0.571616 4 2 ack 40 ------- 1 4.2 2.3 5 94
r 0.574045 2 4 tcp 1040 ------- 1 2.3 4.2 6 91
+ 0.574045 4 2 ack 40 ------- 1 4.2 2.3 6 95
- 0.574045 4 2 ack 40 ------- 1 4.2 2.3 6 95
r 0.577963 1 2 tcp 1040 ------- 1 1.1 2.1 3 92
+ 0.577963 2 1 ack 40 ------- 1 2.1 1.1 3 96
- 0.577963 2 1 ack 40 ------- 1 2.1 1.1 3 96
r 0.578815 1 4 tcp 1040 ------- 1 1.3 4.1 6 93
+ 0.578815 4 1 ack 40 ------- 1 4.1 1.3 6 97
- 0.578815 4 1 ack 40 ------- 1 4.1 1.3 6 97
r 0.581648 4 2 ack 40 ------- 1 4.2 2.3 5 94
r 0.584077 4 2 ack 40 ------- 1 4.2 2.3 6 95
+ 0.585022 0 4 tcp 1040 ---A--- 1 0.3 4.0 3 98
- 0.585022 0 4 tcp 1040 ---A--- 1 0.3 4.0 3 98
r 0.587995 2 1 ack 40 ------- 1 2.1 1.1 3 96
r 0.588847 4 1 ack 40 ------- 1 4.1 1.3 6 97
+ 0.593538 0 1 tcp 1040 ------- 1 0.0 1.0 4 99
- 0.593538 0 1 tcp 1040 ------- 1 0.0 1.0 4 99
r 0.595854 0 4 tcp 1040 ---A--- 1 0.3 4.0 3 98
+ 0.595854 4 0 ack 40 ------- 1 4.0 0.3 3 100
- 0.595854 4 0 ack 40 ------- 1 4.0 0.3 3 100
r 0.60437 0 1 tcp 1040 ------- 1 0.0 1.0 4 99
+ 0.60437 1 0 ack 40 ------- 1 1.0 0.0 4 101
- 0.60437 1 0 ack 40 ------- 1 1.0 0.0 4 101
r 0.605886 4 0 ack 40 ------- 1 4.0 0.3 3 100
+ 0.605886 0 4 tcp 1040 ------- 1 0.3 4.0 4 102
- 0.605886 0 4 tcp 1040 ------- 1 0.3 4.0 4 102
r 0.614402 1 0 ack 40 ------- 1 1.0 0.0 4 101
r 0.616718 0 4 tcp 1040 ------- 1 0.3 4.0 4 102
+ 0.616718 4 0 ack 40 ------- 1 4.0 0.3 4 103
- 0.616718 4 0 ack 40 ------- 1 4.0 0.3 4 103
r 0.62675 4 0 ack 40 ------- 1 4.0 0.3 4 103
+ 0.630289 0 4 tcp 1040 ------- 1 0.3 4.0 5 104
- 0.630289 0 4 tcp 1040 ------- 1 0.3 4.0 5 104
+ 0.638115 1 2 tcp 1040 ------- 1 1.1 2.1 4 105
- 0.638115 1 2 tcp 1040 ------- 1 1.1 2.1 4 105
r 0.641121 0 4 tcp 1040 ------- 1 0.3 4.0 5 104
+ 0.641121 4 0 ack 40 ------- 1 4.0 0.3 5 106
- 0.641121 4 0 ack 40 ------- 1 4.0 0.3 5 106
r 0.648947 1 2 tcp 1040 ------- 1 1.1 2.1 4 105
+ 0.648947 2 1 ack 40 ------- 1 2.1 1.1 4 107
- 0.648947 2 1 ack 40 ------- 1 2.1 1.1 4 107
r 0.651153 4 0 ack 40 ------- 1 4.0 0.3 5 106
+ 0.65648 0 1 tcp 1040 ------- 1 0.0 1.0 5 108
- 0.65648 0 1 tcp 1040 ------- 1 0.0 1.0 5 108
r 0.658979 2 1 ack 40 ------- 1 2.1 1.1 4 107
+ 0.661001 2 3 tcp 1040 ------- 1 2.2 3.2 4 109
- 0.661001 2 3 tcp 1040 ------- 1 2.2 3.2 4 109
r 0.667312 0 1 tcp 1040 ------- 1 0.0 1.0 5 108
+ 0.667312 1 0 ack 40 ------- 1 1.0 0.0 5 110
- 0.667312 1 0 ack 40 ------- 1 1.0 0.0 5 110
+ 0.671221 2 3 tcp 1040 ------- 1 2.2 3.2 5 111
- 0.671221 2 3 tcp 1040 ------- 1 2.2 3.2 5 111
r 0.671833 2 3 tcp 1040 ------- 1 2.2 3.2 4 109
+ 0.671833 3 2 ack 40 ------- 1 3.2 2.2 4 112
- 0.671833 3 2 ack 40 ------- 1 3.2 2.2 4 112
+ 0.677011 0 1 tcp 1040 ------- 1 0.0 1.0 6 113
- 0.677011 0 1 tcp 1040 ------- 1 0.0 1.0 6 113
+ 0.67713 0 3 tcp 1040 ------- 1 0.2 3.0 7 114
- 0.67713 0 3 tcp 1040 ------- 1 0.2 3.0 7 114
r 0.677344 1 0 ack 40 ------- 1 1.0 0.0 5 110
r 0.681865 3 2 ack 40 ------- 1 3.2 2.2 4 112
r 0.682053 2 3 tcp 1040 ------- 1 2.2 3.2 5 111
+ 0.682053 3 2 ack 40 ------- 1 3.2 2.2 5 115
- 0.682053 3 2 ack 40 ------- 1 3.2 2.2 5 115
r 0.687843 0 1 tcp 1040 ------- 1 0.0 1.0 6 113
+ 0.687843 1 0 ack 40 ------- 1 1.0 0.0 6 116
- 0.687843 1 0 ack 40 ------- 1 1.0 0.0 6 116
r 0.687962 0 3 tcp 1040 ------- 1 0.2 3.0 7 114
+ 0.687962 3 0 ack 40 ------- 1 3.0 0.2 7 117
- 0.687962 3 0 ack 40 ------- 1 3.0 0.2 7 117
+ 0.690404 0 1 tcp 1040 ------- 1 0.0 1.0 7 118
- 0.690404 0 1 tcp 1040 ------- 1 0.0 1.0 7 118
r 0.692085 3 2 ack 40 ------- 1 3.2 2.2 5 115
r 0.697875 1 0 ack 40 ------- 1 1.0 0.0 6 116
r 0.697994 3 0 ack 40 ------- 1 3.0 0.2 7 117
r 0.701236 0 1 tcp 1040 ------- 1 0.0 1.0 7 118
+ 0.701236 1 0 ack 40 ------- 1 1.0 0.0 7 119
- 0.701236 1 0 ack 40 ------- 1 1.0 0.0 7 119
+ 0.70296 2 3 tcp 1040 ------- 1 2.2 3.2 6 120
- 0.70296 2 3 tcp 1040 ------- 1 2.2 3.2 6 120
r 0.711268 1 0 ack 40 ------- 1 1.0 0.0 7 119
r 0.713792 2 3 tcp 1040 ------- 1 2.2 3.2 6 120
+ 0.713792 3 2 ack 40 ------- 1 3.2 2.2 6 121
- 0.713792 3 2 ack 40 ------- 1 3.2 2.2 6 121
+ 0.716135 1 3 tcp 1040 ------- 1 1.2 3.1 7 122
- 0.716135 1 3 tcp 1040 ------- 1 1.2 3.1 7 122
+ 0.716749 0 4 tcp 1040 ------- 1 0.3 4.0 6 123
- 0.716749 0 4 tcp 1040 ------- 1 0.3 4.0 6 123
+ 0.721078 0 1 tcp 1040 ------- 1 0.0 1.0 8 124
- 0.721078 0 1 tcp 1040 ------- 1 0.0 1.0 8 124
r 0.723824 3 2 ack 40 ------- 1 3.2 2.2 6 121
+ 0.725024 2 3 tcp 1040 ------- 1 2.2 3.2 7 125
- 0.725024 2 3 tcp 1040 ------- 1 2.2 3.2 7 125
r 0.726967 1 3 tcp 1040 ------- 1 1.2 3.1 7 122
+ 0.726967 3 1 ack 40 ------- 1 3.1 1.2 7 126
- 0.726967 3 1 ack 40 ------- 1 3.1 1.2 7 126
r 0.727581 0 4 tcp 1040 ------- 1 0.3 4.0 6 123
+ 0.727581 4 0 ack 40 ------- 1 4.0 0.3 6 127
- 0.727581 4 0 ack 40 ------- 1 4.0 0.3 6 127
+ 0.730555 0 3 tcp 1040 ------- 1 0.2 3.0 8 128
- 0.730555 0 3 tcp 1040 ------- 1 0.2 3.0 8 128
r 0.73191 0 1 tcp 1040 ------- 1 0.0 1.0 8 124
+ 0.73191 1 0 ack 40 ------- 1 1.0 0.0 8 129
- 0.73191 1 0 ack 40 ------- 1 1.0 0.0 8 129
r 0.735856 2 3 tcp 1040 ------- 1 2.2 3.2 7 125
+ 0.735856 3 2 ack 40 ------- 1 3.2 2.2 7 130
- 0.735856 3 2 ack 40 ------- 1 3.2 2.2 7 130
r 0.736999 3 1 ack 40 ------- 1 3.1 1.2 7 126
r 0.737613 4 0 ack 40 ------- 1 4.0 0.3 6 127
r 0.741387 0 3 tcp 1040 ------- 1 0.2 3.0 8 128
+ 0.741387 3 0 ack 40 ------- 1 3.0 0.2 8 131
- 0.741387 3 0 ack 40 ------- 1 3.0 0.2 8 131
+ 0.741464 0 1 tcp 1040 ------- 1 0.0 1.0 9 132
- 0.741464 0 1 tcp 1040 ------- 1 0.0 1.0 9 132
r 0.741942 1 0 ack 40 ------- 1 1.0 0.0 8 129
r 0.745888 3 2 ack 40 ------- 1 3.2 2.2 7 130
+ 0.749387 2 3 tcp 1040 ------- 1 2.2 3.2 8 133
- 0.749387 2 3 tcp 1040 ------- 1 2.2 3.2 8 133
r 0.751419 3 0 ack 40 ------- 1 3.0 0.2 8 131
r 0.752296 0 1 tcp 1040 ------- 1 0.0 1.0 9 132
+ 0.752296 1 0 ack 40 ------- 1 1.0 0.0 9 134
- 0.752296 1 0 ack 40 ------- 1 1.0 0.0 9 134
+ 0.758086 0 2 tcp 1040 ---A--- 1 0.1 2.0 2 135
- 0.758086 0 2 tcp 1040 ---A--- 1 0.1 2.0 2 135
r 0.760219 2 3 tcp 1040 ------- 1 2.2 3.2 8 133
+ 0.760219 3 2 ack 40 ------- 1 3.2 2.2 8 136
- 0.760219 3 2 ack 40 ------- 1 3.2 2.2 8 136
r 0.762328 1 0 ack 40 ------- 1 1.0 0.0 9 134
r 0.768918 0 2 tcp 1040 ---A--- 1 0.1 2.0 2 135
+ 0.768918 2 0 ack 40 ------- 1 2.0 0.1 2 137
- 0.768918 2 0 ack 40 ------- 1 2.0 0.1 2 137
r 0.770251 3 2 ack 40 ------- 1 3.2 2.2 8 136
+ 0.771573 0 3 tcp 1040 ------- 1 0.2 3.0 9 138
- 0.771573 0 3 tcp 1040 ------- 1 0.2 3.0 9 138
+ 0.775015 0 4 tcp 1040 ------- 1 0.3 4.0 7 139
- 0.775015 0 4 tcp 1040 ------- 1 0.3 4.0 7 139
r 0.77895 2 0 ack 40 ------- 1 2.0 0.1 2 137
r 0.782405 0 3 tcp 1040 ------- 1 0.2 3.0 9 138
+ 0.782405 3 0 ack 40 ------- 1 3.0 0.2 9 140
- 0.782405 3 0 ack 40 ------- 1 3.0 0.2 9 140
r 0.785847 0 4 tcp 1040 ------- 1 0.3 4.0 7 139
+ 0.785847 4 0 ack 40 ------- 1 4.0 0.3 7 141
- 0.785847 4 0 ack 40 ------- 1 4.0 0.3 7 141
r 0.792437 3 0 ack 40 ------- 1 3.0 0.2 9 140
r 0.795879 4 0 ack 40 ------- 1 4.0 0.3 7 141
+ 0.802511 2 4 tcp 1040 ---A--- 1 2.3 4.2 7 142
- 0.802511 2 4 tcp 1040 ---A--- 1 2.3 4.2 7 142
+ 0.812843 3 4 tcp 1040 ---A--- 1 3.3 4.3 4 143
- 0.812843 3 4 tcp 1040 ---A--- 1 3.3 4.3 4 143
r 0.813343 2 4 tcp 1040 ---A--- 1 2.3 4.2 7 142
+ 0.813343 4 2 ack 40 ------- 1 4.2 2.3 7 144
- 0.813343 4 2 ack 40 ------- 1 4.2 2.3 7 144
+ 0.818577 0 2 tcp 1040 ------- 1 0.1 2.0 3 145
- 0.818577 0 2 tcp 1040 ------- 1 0.1 2.0 3 145
+ 0.819401 1 3 tcp 1040 ------- 1 1.2 3.1 8 146
- 0.819401 1 3 tcp 1040 ------- 1 1.2 3.1 8 146
r 0.823375 4 2 ack 40 ------- 1 4.2 2.3 7 144
r 0.823675 3 4 tcp 1040 ---A--- 1 3.3 4.3 4 143
+ 0.823675 4 3 ack 40 ------- 1 4.3 3.3 4 147
- 0.823675 4 3 ack 40 ------- 1 4.3 3.3 4 147
+ 0.828619 1 3 tcp 1040 ------- 1 1.2 3.1 9 148
- 0.828619 1 3 tcp 1040 ------- 1 1.2 3.1 9 148
r 0.829409 0 2 tcp 1040 ------- 1 0.1 2.0 3 145
+ 0.829409 2 0 ack 40 ------- 1 2.0 0.1 3 149
- 0.829409 2 0 ack 40 ------- 1 2.0 0.1 3 149
r 0.830233 1 3 tcp 1040 ------- 1 1.2 3.1 8 146
+ 0.830233 3 1 ack 40 ------- 1 3.1 1.2 8 150
- 0.830233 3 1 ack 40 ------- 1 3.1 1.2 8 150
r 0.833707 4 3 ack 40 ------- 1 4.3 3.3 4 147
+ 0.839434 2 3 tcp 1040 ------- 1 2.2 3.2 9 151
- 0.839434 2 3 tcp 1040 ------- 1 2.2 3.2 9 151
r 0.839441 2 0 ack 40 ------- 1 2.0 0.1 3 149
r 0.839451 1 3 tcp 1040 ------- 1 1.2 3.1 9 148
+ 0.839451 3 1 ack 40 ------- 1 3.1 1.2 9 152
- 0.839451 3 1 ack 40 ------- 1 3.1 1.2 9 152
r 0.840265 3 1 ack 40 ------- 1 3.1 1.2 8 150
r 0.849483 3 1 ack 40 ------- 1 3.1 1.2 9 152
r 0.850266 2 3 tcp 1040 ------- 1 2.2 3.2 9 151
+ 0.850266 3 2 ack 40 ------- 1 3.2 2.2 9 153
- 0.850266 3 2 ack 40 ------- 1 3.2 2.2 9 153
+ 0.854863 0 2 tcp 1040 ------- 1 0.1 2.0 4 154
- 0.854863 0 2 tcp 1040 ------- 1 0.1 2.0 4 154
r 0.860298 3 2 ack 40 ------- 1 3.2 2.2 9 153
r 0.865695 0 2 tcp 1040 ------- 1 0.1 2.0 4 154
+ 0.865695 2 0 ack 40 ------- 1 2.0 0.1 4 155
- 0.865695 2 0 ack 40 ------- 1 2.0 0.1 4 155
+ 0.867289 1 4 tcp 1040 ---A--- 1 1.3 4.1 7 156
- 0.867289 1 4 tcp 1040 ---A--- 1 1.3 4.1 7 156
+ 0.870029 0 3 tcp 1040 ------- 1 0.2 3.0 10 157
- 0.870029 0 3 tcp 1040 ------- 1 0.2 3.0 10 157
r 0.875727 2 0 ack 40 ------- 1 2.0 0.1 4 155
r 0.878121 1 4 tcp 1040 ---A--- 1 1.3 4.1 7 156
+ 0.878121 4 1 ack 40 ------- 1 4.1 1.3 7 158
- 0.878121 4 1 ack 40 ------- 1 4.1 1.3 7 158
r 0.880861 0 3 tcp 1040 ------- 1 0.2 3.0 10 157
+ 0.880861 3 0 ack 40 ------- 1 3.0 0.2 10 159
- 0.880861 3 0 ack 40 ------- 1 3.0 0.2 10 159
+ 0.880929 1 2 tcp 1040 ---A--- 1 1.1 2.1 5 160
- 0.880929 1 2 tcp 1040 ---A--- 1 1.1 2.1 5 160
r 0.888153 4 1 ack 40 ------- 1 4.1 1.3 7 158
r 0.890893 3 0 ack 40 ------- 1 3.0 0.2 10 159
r 0.891761 1 2 tcp 1040 ---A--- 1 1.1 2.1 5 160
+ 0.891761 2 1 ack 40 ------- 1 2.1 1.1 5 161
- 0.891761 2 1 ack 40 ------- 1 2.1 1.1 5 161
r 0.901793 2 1 ack 40 ------- 1 2.1 1.1 5 161
+ 0.901793 1 2 tcp 1040 ------- 1 1.1 2.1 6 162
- 0.901793 1 2 tcp 1040 ------- 1 1.1 2.1 6 162
+ 0.906354 1 2 tcp 1040 ------- 1 1.1 2.1 7 163
- 0.906354 1 2 tcp 1040 ------- 1 1.1 2.1 7 163
r 0.912625 1 2 tcp 1040 ------- 1 1.1 2.1 6 162
+ 0.912625 2 1 ack 40 ------- 1 2.1 1.1 6 164
- 0.912625 2 1 ack 40 ------- 1 2.1 1.1 6 164
r 0.917186 1 2 tcp 1040 ------- 1 1.1 2.1 7 163
+ 0.917186 2 1 ack 40 ------- 1 2.1 1.1 7 165
- 0.917186 2 1 ack 40 ------- 1 2.1 1.1 7 165
r 0.922657 2 1 ack 40 ------- 1 2.1 1.1 6 164
+ 0.923041 3 4 tcp 1040 ------- 1 3.3 4.3 5 166
- 0.923041 3 4 tcp 1040 ------- 1 3.3 4.3 5 166
r 0.927218 2 1 ack 40 ------- 1 2.1 1.1 7 165
+ 0.927942 1 2 tcp 1040 ------- 1 1.1 2.1 8 167
- 0.927942 1 2 tcp 1040 ------- 1 1.1 2.1 8 167
+ 0.931183 0 1 tcp 1040 ------- 1 0.0 1.0 10 168
- 0.931183 0 1 tcp 1040 ------- 1 0.0 1.0 10 168
r 0.933873 3 4 tcp 1040 ------- 1 3.3 4.3 5 166
+ 0.933873 4 3 ack 40 ------- 1 4.3 3.3 5 169
- 0.933873 4 3 ack 40 ------- 1 4.3 3.3 5 169
r 0.938774 1 2 tcp 1040 ------- 1 1.1 2.1 8 167
+ 0.938774 2 1 ack 40 ------- 1 2.1 1.1 8 170
- 0.938774 2 1 ack 40 ------- 1 2.1 1.1 8 170
+ 0.940152 2 3 tcp 1040 ------- 1 2.2 3.2 10 171
- 0.940152 2 3 tcp 1040 ------- 1 2.2 3.2 10 171
r 0.942015 0 1 tcp 1040 ------- 1 0.0 1.0 10 168
+ 0.942015 1 0 ack 40 ------- 1 1.0 0.0 10 172
- 0.942015 1 0 ack 40 ------- 1 1.0 0.0 10 172
r 0.943905 4 3 ack 40 ------- 1 4.3 3.3 5 169
r 0.948806 2 1 ack 40 ------- 1 2.1 1.1 8 170
r 0.950984 2 3 tcp 1040 ------- 1 2.2 3.2 10 171
+ 0.950984 3 2 ack 40 ------- 1 3.2 2.2 10 173
- 0.950984 3 2 ack 40 ------- 1 3.2 2.2 10 173
r 0.952047 1 0 ack 40 ------- 1 1.0 0.0 10 172
+ 0.959256 0 1 tcp 1040 ------- 1 0.0 1.0 11 174
- 0.959256 0 1 tcp 1040 ------- 1 0.0 1.0 11 174
r 0.961016 3 2 ack 40 ------- 1 3.2 2.2 10 173
r 0.970088 0 1 tcp 1040 ------- 1 0.0 1.0 11 174
+ 0.970088 1 0 ack 40 ------- 1 1.0 0.0 11 175
- 0.970088 1 0 ack 40 ------- 1 1.0 0.0 11 175
+ 0.973611 0 2 tcp 1040 ------- 1 0.1 2.0 5 176
- 0.973611 0 2 tcp 1040 ------- 1 0.1 2.0 5 176
r 0.98012 1 0 ack 40 ------- 1 1.0 0.0 11 175
+ 0.982875 0 1 tcp 1040 ------- 1 0.0 1.0 12 177
- 0.982875 0 1 tcp 1040 ------- 1 0.0 1.0 12 177
+ 0.983432 0 3 tcp 1040 ------- 1 0.2 3.0 11 178
- 0.983432 0 3 tcp 1040 ------- 1 0.2 3.0 11 178
r 0.984443 0 2 tcp 1040 ------- 1 0.1 2.0 5 176
+ 0.984443 2 0 ack 40 ------- 1 2.0 0.1 5 179
- 0.984443 2 0 ack 40 ------- 1 2.0 0.1 5 179
+ 0.988708 2 3 tcp 1040 ------- 1 2.2 3.2 11 180
- 0.988708 2 3 tcp 1040 ------- 1 2.2 3.2 11 180
r 0.993707 0 1 tcp 1040 ------- 1 0.0 1.0 12 177
+ 0.993707 1 0 ack 40 ------- 1 1.0 0.0 12 181
- 0.993707 1 0 ack 40 ------- 1 1.0 0.0 12 181
r 0.994264 0 3 tcp 1040 ------- 1 0.2 3.0 11 178
+ 0.994264 3 0 ack 40 ------- 1 3.0 0.2 11 182
- 0.994264 3 0 ack 40 ------- 1 3.0 0.2 11 182
r 0.994475 2 0 ack 40 ------- 1 2.0 0.1 5 179
r 0.99954 2 3 tcp 1040 ------- 1 2.2 3.2 11 180
+ 0.99954 3 2 ack 40 ------- 1 3.2 2.2 11 183
- 0.99954 3 2 ack 40 ------- 1 3.2 2.2 11 183
r 1.003739 1 0 ack 40 ------- 1 1.0 0.0 12 181
r 1.004296 3 0 ack 40 ------- 1 3.0 0.2 11 182
r 1.009572 3 2 ack 40 ------- 1 3.2 2.2 11 183
+ 1.03886 0 2 tcp 1040 ------- 1 0.1 2.0 6 184
- 1.03886 0 2 tcp 1040 ------- 1 0.1 2.0 6 184
r 1.049692 0 2 tcp 1040 ------- 1 0.1 2.0 6 184
+ 1.049692 2 0 ack 40 ------- 1 2.0 0.1 6 185
- 1.049692 2 0 ack 40 ------- 1 2.0 0.1 6 185
+ 1.050886 2 4 tcp 1040 ---A--- 1 2.3 4.2 8 186
- 1.050886 2 4 tcp 1040 ---A--- 1 2.3 4.2 8 186
r 1.059724 2 0 ack 40 ------- 1 2.0 0.1 6 185
r 1.061718 2 4 tcp 1040 ---A--- 1 2.3 4.2 8 186
+ 1.061718 4 2 ack 40 ------- 1 4.2 2.3 8 187
- 1.061718 4 2 ack 40 ------- 1 4.2 2.3 8 187
+ 1.062446 0 1 tcp 1040 ------- 1 0.0 1.0 13 188
- 1.062446 0 1 tcp 1040 ------- 1 0.0 1.0 13 188
r 1.07175 4 2 ack 40 ------- 1 4.2 2.3 8 187
r 1.073278 0 1 tcp 1040 ------- 1 0.0 1.0 13 188
+ 1.073278 1 0 ack 40 ------- 1 1.0 0.0 13 189
- 1.073278 1 0 ack 40 ------- 1 1.0 0.0 13 189
r 1.08331 1 0 ack 40 ------- 1 1.0 0.0 13 189
+ 1.099522 3 4 tcp 1040 ------- 1 3.3 4.3 6 190
- 1.099522 3 4 tcp 1040 ------- 1 3.3 4.3 6 190
r 1.110354 3 4 tcp 1040 ------- 1 3.3 4.3 6 190
+ 1.110354 4 3 ack 40 ------- 1 4.3 3.3 6 191
- 1.110354 4 3 ack 40 ------- 1 4.3 3.3 6 191
r 1.120386 4 3 ack 40 ------- 1 4.3 3.3 6 191
+ 1.120977 0 2 tcp 1040 ------- 1 0.1 2.0 7 192
- 1.120977 0 2 tcp 1040 ------- 1 0.1 2.0 7 192
+ 1.131578 0 2 tcp 1040 ------- 1 0.1 2.0 8 193
- 1.131578 0 2 tcp 1040 ------- 1 0.1 2.0 8 193
r 1.131809 0 2 tcp 1040 ------- 1 0.1 2.0 7 192
+ 1.131809 2 0 ack 40 ------- 1 2.0 0.1 7 194
- 1.131809 2 0 ack 40 ------- 1 2.0 0.1 7 194
+ 1.133617 2 4 tcp 1040 ------- 1 2.3 4.2 9 195
- 1.133617 2 4 tcp 1040 ------- 1 2.3 4.2 9 195
+ 1.140639 0 3 tcp 1040 ------- 1 0.2 3.0 12 196
- 1.140639 0 3 tcp 1040 ------- 1 0.2 3.0 12 196
r 1.141841 2 0 ack 40 ------- 1 2.0 0.1 7 194
r 1.14241 0 2 tcp 1040 ------- 1 0.1 2.0 8 193
+ 1.14241 2 0 ack 40 ------- 1 2.0 0.1 8 197
- 1.14241 2 0 ack 40 ------- 1 2.0 0.1 8 197
r 1.144449 2 4 tcp 1040 ------- 1 2.3 4.2 9 195
+ 1.144449 4 2 ack 40 ------- 1 4.2 2.3 9 198
- 1.144449 4 2 ack 40 ------- 1 4.2 2.3 9 198
r 1.151471 0 3 tcp 1040 ------- 1 0.2 3.0 12 196
+ 1.151471 3 0 ack 40 ------- 1 3.0 0.2 12 199
- 1.151471 3 0 ack 40 ------- 1 3.0 0.2 12 199
r 1.152442 2 0 ack 40 ------- 1 2.0 0.1 8 197
r 1.154481 4 2 ack 40 ------- 1 4.2 2.3 9 198
r 1.161503 3 0 ack 40 ------- 1 3.0 0.2 12 199
+ 1.170375 1 3 tcp 1040 ---A--- 1 1.2 3.1 10 200
- 1.170375 1 3 tcp 1040 ---A--- 1 1.2 3.1 10 200
+ 1.172946 0 1 tcp 1040 ------- 1 0.0 1.0 14 201
- 1.172946 0 1 tcp 1040 ------- 1 0.0 1.0 14 201
r 1.181207 1 3 tcp 1040 ---A--- 1 1.2 3.1 10 200
+ 1.181207 3 1 ack 40 ------- 1 3.1 1.2 10 202
- 1.181207 3 1 ack 40 ------- 1 3.1 1.2 10 202
r 1.183778 0 1 tcp 1040 ------- 1 0.0 1.0 14 201
+ 1.183778 1 0 ack 40 ------- 1 1.0 0.0 14 203
- 1.183778 1 0 ack 40 ------- 1 1.0 0.0 14 203
r 1.191239 3 1 ack 40 ------- 1 3.1 1.2 10 202
r 1.19381 1 0 ack 40 ------- 1 1.0 0.0 14 203
