+ 0.214842 2 3 tcp 40 ------- 1 2.2 3.2 0 0
- 0.214842 2 3 tcp 40 ------- 1 2.2 3.2 0 0
+ 0.217456 2 4 tcp 40 ------- 1 2.3 4.2 0 1
- 0.217456 2 4 tcp 40 ------- 1 2.3 4.2 0 1
+ 0.22144 0 1 tcp 40 ------- 1 0.0 1.0 0 2
- 0.22144 0 1 tcp 40 ------- 1 0.0 1.0 0 2
r 0.224845 2 3 tcp 40 ------- 1 2.2 3.2 0 0
+ 0.224845 3 2 ack 40 ------- 1 3.2 2.2 0 3
- 0.224845 3 2 ack 40 ------- 1 3.2 2.2 0 3
r 0.227459 2 4 tcp 40 ------- 1 2.3 4.2 0 1
+ 0.227459 4 2 ack 40 ------- 1 4.2 2.3 0 4
- 0.227459 4 2 ack 40 ------- 1 4.2 2.3 0 4
r 0.231443 0 1 tcp 40 ------- 1 0.0 1.0 0 2
+ 0.231443 1 0 ack 40 ------- 1 1.0 0.0 0 5
- 0.231443 1 0 ack 40 ------- 1 1.0 0.0 0 5
r 0.234849 3 2 ack 40 ------- 1 3.2 2.2 0 3
+ 0.234849 2 3 tcp 1040 ------- 1 2.2 3.2 1 6
- 0.234849 2 3 tcp 1040 ------- 1 2.2 3.2 1 6
+ 0.236773 1 4 tcp 40 ------- 1 1.3 4.1 0 7
- 0.236773 1 4 tcp 40 ------- 1 1.3 4.1 0 7
r 0.237463 4 2 ack 40 ------- 1 4.2 2.3 0 4
+ 0.237463 2 4 tcp 1040 ------- 1 2.3 4.2 1 8
- 0.237463 2 4 tcp 1040 ------- 1 2.3 4.2 1 8
+ 0.237463 2 4 tcp 1040 ------- 1 2.3 4.2 2 9
- 0.237546 2 4 tcp 1040 ------- 1 2.3 4.2 2 9
r 0.241446 1 0 ack 40 ------- 1 1.0 0.0 0 5
+ 0.241446 0 1 tcp 1040 ------- 1 0.0 1.0 1 10
- 0.241446 0 1 tcp 1040 ------- 1 0.0 1.0 1 10
r 0.244932 2 3 tcp 1040 ------- 1 2.2 3.2 1 6
+ 0.244932 3 2 ack 40 ------- 1 3.2 2.2 1 11
- 0.244932 3 2 ack 40 ------- 1 3.2 2.2 1 11
r 0.246776 1 4 tcp 40 ------- 1 1.3 4.1 0 7
+ 0.246776 4 1 ack 40 ------- 1 4.1 1.3 0 12
- 0.246776 4 1 ack 40 ------- 1 4.1 1.3 0 12
r 0.247546 2 4 tcp 1040 ------- 1 2.3 4.2 1 8
+ 0.247546 4 2 ack 40 ------- 1 4.2 2.3 1 13
- 0.247546 4 2 ack 40 ------- 1 4.2 2.3 1 13
r 0.247629 2 4 tcp 1040 ------- 1 2.3 4.2 2 9
+ 0.247629 4 2 ack 40 ------- 1 4.2 2.3 2 14
- 0.247629 4 2 ack 40 ------- 1 4.2 2.3 2 14
r 0.251529 0 1 tcp 1040 ------- 1 0.0 1.0 1 10
+ 0.251529 1 0 ack 40 ------- 1 1.0 0.0 1 15
- 0.251529 1 0 ack 40 ------- 1 1.0 0.0 1 15
r 0.254935 3 2 ack 40 ------- 1 3.2 2.2 1 11
r 0.256779 4 1 ack 40 ------- 1 4.1 1.3 0 12
+ 0.256779 1 4 tcp 1040 ------- 1 1.3 4.1 1 16
- 0.256779 1 4 tcp 1040 ------- 1 1.3 4.1 1 16
+ 0.256779 1 4 tcp 1040 ------- 1 1.3 4.1 2 17
- 0.256862 1 4 tcp 1040 ------- 1 1.3 4.1 2 17
r 0.257549 4 2 ack 40 ------- 1 4.2 2.3 1 13
r 0.257632 4 2 ack 40 ------- 1 4.2 2.3 2 14
+ 0.260396 0 1 tcp 1040 ------- 1 0.0 1.0 2 18
- 0.260396 0 1 tcp 1040 ------- 1 0.0 1.0 2 18
+ 0.260728 2 4 tcp 1040 ------- 1 2.3 4.2 3 19
- 0.260728 2 4 tcp 1040 ------- 1 2.3 4.2 3 19
r 0.261532 1 0 ack 40 ------- 1 1.0 0.0 1 15
+ 0.265653 1 2 tcp 40 ------- 1 1.1 2.1 0 20
- 0.265653 1 2 tcp 40 ------- 1 1.1 2.1 0 20
r 0.266862 1 4 tcp 1040 ------- 1 1.3 4.1 1 16
+ 0.266862 4 1 ack 40 ------- 1 4.1 1.3 1 21
- 0.266862 4 1 ack 40 ------- 1 4.1 1.3 1 21
r 0.266945 1 4 tcp 1040 ------- 1 1.3 4.1 2 17
+ 0.266945 4 1 ack 40 ------- 1 4.1 1.3 2 22
- 0.266945 4 1 ack 40 ------- 1 4.1 1.3 2 22
r 0.27048 0 1 tcp 1040 ------- 1 0.0 1.0 2 18
+ 0.27048 1 0 ack 40 ------- 1 1.0 0.0 2 23
- 0.27048 1 0 ack 40 ------- 1 1.0 0.0 2 23
r 0.270812 2 4 tcp 1040 ------- 1 2.3 4.2 3 19
+ 0.270812 4 2 ack 40 ------- 1 4.2 2.3 3 24
- 0.270812 4 2 ack 40 ------- 1 4.2 2.3 3 24
r 0.275656 1 2 tcp 40 ------- 1 1.1 2.1 0 20
+ 0.275656 2 1 ack 40 ------- 1 2.1 1.1 0 25
- 0.275656 2 1 ack 40 ------- 1 2.1 1.1 0 25
+ 0.276332 1 3 tcp 40 ------- 1 1.2 3.1 0 26
- 0.276332 1 3 tcp 40 ------- 1 1.2 3.1 0 26
r 0.276865 4 1 ack 40 ------- 1 4.1 1.3 1 21
r 0.276949 4 1 ack 40 ------- 1 4.1 1.3 2 22
r 0.280483 1 0 ack 40 ------- 1 1.0 0.0 2 23
r 0.280815 4 2 ack 40 ------- 1 4.2 2.3 3 24
r 0.285659 2 1 ack 40 ------- 1 2.1 1.1 0 25
+ 0.285659 1 2 tcp 1040 ------- 1 1.1 2.1 1 27
- 0.285659 1 2 tcp 1040 ------- 1 1.1 2.1 1 27
r 0.286335 1 3 tcp 40 ------- 1 1.2 3.1 0 26
+ 0.286335 3 1 ack 40 ------- 1 3.1 1.2 0 28
- 0.286335 3 1 ack 40 ------- 1 3.1 1.2 0 28
+ 0.289481 0 4 tcp 40 ------- 1 0.3 4.0 0 29
- 0.289481 0 4 tcp 40 ------- 1 0.3 4.0 0 29
r 0.295742 1 2 tcp 1040 ------- 1 1.1 2.1 1 27
+ 0.295742 2 1 ack 40 ------- 1 2.1 1.1 1 30
- 0.295742 2 1 ack 40 ------- 1 2.1 1.1 1 30
r 0.296338 3 1 ack 40 ------- 1 3.1 1.2 0 28
+ 0.296338 1 3 tcp 1040 ------- 1 1.2 3.1 1 31
- 0.296338 1 3 tcp 1040 ------- 1 1.2 3.1 1 31
+ 0.296338 1 3 tcp 1040 ------- 1 1.2 3.1 2 32
- 0.296422 1 3 tcp 1040 ------- 1 1.2 3.1 2 32
r 0.299484 0 4 tcp 40 ------- 1 0.3 4.0 0 29
+ 0.299484 4 0 ack 40 ------- 1 4.0 0.3 0 33
- 0.299484 4 0 ack 40 ------- 1 4.0 0.3 0 33
+ 0.305343 0 2 tcp 40 ------- 1 0.1 2.0 0 34
- 0.305343 0 2 tcp 40 ------- 1 0.1 2.0 0 34
r 0.305746 2 1 ack 40 ------- 1 2.1 1.1 1 30
r 0.306422 1 3 tcp 1040 ------- 1 1.2 3.1 1 31
+ 0.306422 3 1 ack 40 ------- 1 3.1 1.2 1 35
- 0.306422 3 1 ack 40 ------- 1 3.1 1.2 1 35
r 0.306505 1 3 tcp 1040 ------- 1 1.2 3.1 2 32
+ 0.306505 3 1 ack 40 ------- 1 3.1 1.2 2 36
- 0.306505 3 1 ack 40 ------- 1 3.1 1.2 2 36
r 0.309487 4 0 ack 40 ------- 1 4.0 0.3 0 33
+ 0.309487 0 4 tcp 1040 ------- 1 0.3 4.0 1 37
- 0.309487 0 4 tcp 1040 ------- 1 0.3 4.0 1 37
+ 0.309487 0 4 tcp 1040 ------- 1 0.3 4.0 2 38
- 0.30957 0 4 tcp 1040 ------- 1 0.3 4.0 2 38
r 0.315346 0 2 tcp 40 ------- 1 0.1 2.0 0 34
+ 0.315346 2 0 ack 40 ------- 1 2.0 0.1 0 39
- 0.315346 2 0 ack 40 ------- 1 2.0 0.1 0 39
r 0.316425 3 1 ack 40 ------- 1 3.1 1.2 1 35
+ 0.316425 1 3 tcp 1040 ------- 1 1.2 3.1 3 40
- 0.316425 1 3 tcp 1040 ------- 1 1.2 3.1 3 40
r 0.316508 3 1 ack 40 ------- 1 3.1 1.2 2 36
r 0.31957 0 4 tcp 1040 ------- 1 0.3 4.0 1 37
+ 0.31957 4 0 ack 40 ------- 1 4.0 0.3 1 41
- 0.31957 4 0 ack 40 ------- 1 4.0 0.3 1 41
r 0.319654 0 4 tcp 1040 ------- 1 0.3 4.0 2 38
+ 0.319654 4 0 ack 40 ------- 1 4.0 0.3 2 42
- 0.319654 4 0 ack 40 ------- 1 4.0 0.3 2 42
r 0.325349 2 0 ack 40 ------- 1 2.0 0.1 0 39
+ 0.325349 0 2 tcp 1040 ------- 1 0.1 2.0 1 43
- 0.325349 0 2 tcp 1040 ------- 1 0.1 2.0 1 43
r 0.326508 1 3 tcp 1040 ------- 1 1.2 3.1 3 40
+ 0.326508 3 1 ack 40 ------- 1 3.1 1.2 3 44
- 0.326508 3 1 ack 40 ------- 1 3.1 1.2 3 44
r 0.329574 4 0 ack 40 ------- 1 4.0 0.3 1 41
r 0.329657 4 0 ack 40 ------- 1 4.0 0.3 2 42
r 0.335432 0 2 tcp 1040 ------- 1 0.1 2.0 1 43
+ 0.335432 2 0 ack 40 ------- 1 2.0 0.1 1 45
- 0.335432 2 0 ack 40 ------- 1 2.0 0.1 1 45
+ 0.335445 0 3 tcp 40 ------- 1 0.2 3.0 0 46
- 0.335445 0 3 tcp 40 ------- 1 0.2 3.0 0 46
r 0.336511 3 1 ack 40 ------- 1 3.1 1.2 3 44
+ 0.337019 1 4 tcp 1040 ------- 1 1.3 4.1 3 47
- 0.337019 1 4 tcp 1040 ------- 1 1.3 4.1 3 47
r 0.345435 2 0 ack 40 ------- 1 2.0 0.1 1 45
r 0.345449 0 3 tcp 40 ------- 1 0.2 3.0 0 46
+ 0.345449 3 0 ack 40 ------- 1 3.0 0.2 0 48
- 0.345449 3 0 ack 40 ------- 1 3.0 0.2 0 48
r 0.347103 1 4 tcp 1040 ------- 1 1.3 4.1 3 47
+ 0.347103 4 1 ack 40 ------- 1 4.1 1.3 3 49
- 0.347103 4 1 ack 40 ------- 1 4.1 1.3 3 49
+ 0.351311 2 4 tcp 1040 ------- 1 2.3 4.2 4 50
- 0.351311 2 4 tcp 1040 ------- 1 2.3 4.2 4 50
+ 0.352712 3 4 tcp 40 ------- 1 3.3 4.3 0 51
- 0.352712 3 4 tcp 40 ------- 1 3.3 4.3 0 51
r 0.355452 3 0 ack 40 ------- 1 3.0 0.2 0 48
+ 0.355452 0 3 tcp 1040 ------- 1 0.2 3.0 1 52
- 0.355452 0 3 tcp 1040 ------- 1 0.2 3.0 1 52
+ 0.357044 2 3 tcp 1040 ------- 1 2.2 3.2 2 53
- 0.357044 2 3 tcp 1040 ------- 1 2.2 3.2 2 53
r 0.357106 4 1 ack 40 ------- 1 4.1 1.3 3 49
r 0.361394 2 4 tcp 1040 ------- 1 2.3 4.2 4 50
+ 0.361394 4 2 ack 40 ------- 1 4.2 2.3 4 54
- 0.361394 4 2 ack 40 ------- 1 4.2 2.3 4 54
r 0.362716 3 4 tcp 40 ------- 1 3.3 4.3 0 51
+ 0.362716 4 3 ack 40 ------- 1 4.3 3.3 0 55
- 0.362716 4 3 ack 40 ------- 1 4.3 3.3 0 55
r 0.365535 0 3 tcp 1040 ------- 1 0.2 3.0 1 52
+ 0.365535 3 0 ack 40 ------- 1 3.0 0.2 1 56
- 0.365535 3 0 ack 40 ------- 1 3.0 0.2 1 56
r 0.367128 2 3 tcp 1040 ------- 1 2.2 3.2 2 53
+ 0.367128 3 2 ack 40 ------- 1 3.2 2.2 2 57
- 0.367128 3 2 ack 40 ------- 1 3.2 2.2 2 57
r 0.371397 4 2 ack 40 ------- 1 4.2 2.3 4 54
r 0.372719 4 3 ack 40 ------- 1 4.3 3.3 0 55
+ 0.372719 3 4 tcp 1040 ------- 1 3.3 4.3 1 58
- 0.372719 3 4 tcp 1040 ------- 1 3.3 4.3 1 58
r 0.375538 3 0 ack 40 ------- 1 3.0 0.2 1 56
r 0.377131 3 2 ack 40 ------- 1 3.2 2.2 2 57
r 0.382802 3 4 tcp 1040 ------- 1 3.3 4.3 1 58
+ 0.382802 4 3 ack 40 ------- 1 4.3 3.3 1 59
- 0.382802 4 3 ack 40 ------- 1 4.3 3.3 1 59
+ 0.38736 0 3 tcp 1040 ------- 1 0.2 3.0 2 60
- 0.38736 0 3 tcp 1040 ------- 1 0.2 3.0 2 60
r 0.392805 4 3 ack 40 ------- 1 4.3 3.3 1 59
+ 0.392966 3 4 tcp 1040 ------- 1 3.3 4.3 2 61
- 0.392966 3 4 tcp 1040 ------- 1 3.3 4.3 2 61
r 0.397443 0 3 tcp 1040 ------- 1 0.2 3.0 2 60
+ 0.397443 3 0 ack 40 ------- 1 3.0 0.2 2 62
- 0.397443 3 0 ack 40 ------- 1 3.0 0.2 2 62
r 0.403049 3 4 tcp 1040 ------- 1 3.3 4.3 2 61
+ 0.403049 4 3 ack 40 ------- 1 4.3 3.3 2 63
- 0.403049 4 3 ack 40 ------- 1 4.3 3.3 2 63
r 0.407447 3 0 ack 40 ------- 1 3.0 0.2 2 62
r 0.413052 4 3 ack 40 ------- 1 4.3 3.3 2 63
+ 0.423217 0 3 tcp 1040 ------- 1 0.2 3.0 3 64
- 0.423217 0 3 tcp 1040 ------- 1 0.2 3.0 3 64
+ 0.433122 1 2 tcp 1040 ------- 1 1.1 2.1 2 65
- 0.433122 1 2 tcp 1040 ------- 1 1.1 2.1 2 65
r 0.433301 0 3 tcp 1040 ------- 1 0.2 3.0 3 64
+ 0.433301 3 0 ack 40 ------- 1 3.0 0.2 3 66
- 0.433301 3 0 ack 40 ------- 1 3.0 0.2 3 66
+ 0.436382 0 3 tcp 1040 ------- 1 0.2 3.0 4 67
- 0.436382 0 3 tcp 1040 ------- 1 0.2 3.0 4 67
r 0.443206 1 2 tcp 1040 ------- 1 1.1 2.1 2 65
+ 0.443206 2 1 ack 40 ------- 1 2.1 1.1 2 68
- 0.443206 2 1 ack 40 ------- 1 2.1 1.1 2 68
r 0.443304 3 0 ack 40 ------- 1 3.0 0.2 3 66
+ 0.446184 1 4 tcp 1040 ------- 1 1.3 4.1 4 69
- 0.446184 1 4 tcp 1040 ------- 1 1.3 4.1 4 69
r 0.446465 0 3 tcp 1040 ------- 1 0.2 3.0 4 67
+ 0.446465 3 0 ack 40 ------- 1 3.0 0.2 4 70
- 0.446465 3 0 ack 40 ------- 1 3.0 0.2 4 70
r 0.453209 2 1 ack 40 ------- 1 2.1 1.1 2 68
+ 0.453695 3 4 tcp 1040 ------- 1 3.3 4.3 3 71
- 0.453695 3 4 tcp 1040 ------- 1 3.3 4.3 3 71
r 0.456267 1 4 tcp 1040 ------- 1 1.3 4.1 4 69
+ 0.456267 4 1 ack 40 ------- 1 4.1 1.3 4 72
- 0.456267 4 1 ack 40 ------- 1 4.1 1.3 4 72
r 0.456468 3 0 ack 40 ------- 1 3.0 0.2 4 70
r 0.463779 3 4 tcp 1040 ------- 1 3.3 4.3 3 71
+ 0.463779 4 3 ack 40 ------- 1 4.3 3.3 3 73
- 0.463779 4 3 ack 40 ------- 1 4.3 3.3 3 73
r 0.466271 4 1 ack 40 ------- 1 4.1 1.3 4 72
r 0.473782 4 3 ack 40 ------- 1 4.3 3.3 3 73
+ 0.481855 0 1 tcp 1040 ---A--- 1 0.0 1.0 3 74
- 0.481855 0 1 tcp 1040 ---A--- 1 0.0 1.0 3 74
r 0.491939 0 1 tcp 1040 ---A--- 1 0.0 1.0 3 74
+ 0.491939 1 0 ack 40 ------- 1 1.0 0.0 3 75
- 0.491939 1 0 ack 40 ------- 1 1.0 0.0 3 75
+ 0.492915 2 3 tcp 1040 ------- 1 2.2 3.2 3 76
- 0.492915 2 3 tcp 1040 ------- 1 2.2 3.2 3 76
+ 0.495289 0 3 tcp 1040 ------- 1 0.2 3.0 5 77
- 0.495289 0 3 tcp 1040 ------- 1 0.2 3.0 5 77
r 0.501942 1 0 ack 40 ------- 1 1.0 0.0 3 75
r 0.502998 2 3 tcp 1040 ------- 1 2.2 3.2 3 76
+ 0.502998 3 2 ack 40 ------- 1 3.2 2.2 3 78
- 0.502998 3 2 ack 40 ------- 1 3.2 2.2 3 78
r 0.505372 0 3 tcp 1040 ------- 1 0.2 3.0 5 77
+ 0.505372 3 0 ack 40 ------- 1 3.0 0.2 5 79
- 0.505372 3 0 ack 40 ------- 1 3.0 0.2 5 79
+ 0.512694 1 3 tcp 1040 ------- 1 1.2 3.1 4 80
- 0.512694 1 3 tcp 1040 ------- 1 1.2 3.1 4 80
r 0.513001 3 2 ack 40 ------- 1 3.2 2.2 3 78
r 0.515376 3 0 ack 40 ------- 1 3.0 0.2 5 79
+ 0.518159 1 3 tcp 1040 ------- 1 1.2 3.1 5 81
- 0.518159 1 3 tcp 1040 ------- 1 1.2 3.1 5 81
+ 0.519498 0 3 tcp 1040 ------- 1 0.2 3.0 6 82
- 0.519498 0 3 tcp 1040 ------- 1 0.2 3.0 6 82
r 0.522777 1 3 tcp 1040 ------- 1 1.2 3.1 4 80
+ 0.522777 3 1 ack 40 ------- 1 3.1 1.2 4 83
- 0.522777 3 1 ack 40 ------- 1 3.1 1.2 4 83
r 0.528242 1 3 tcp 1040 ------- 1 1.2 3.1 5 81
+ 0.528242 3 1 ack 40 ------- 1 3.1 1.2 5 84
- 0.528242 3 1 ack 40 ------- 1 3.1 1.2 5 84
r 0.529581 0 3 tcp 1040 ------- 1 0.2 3.0 6 82
+ 0.529581 3 0 ack 40 ------- 1 3.0 0.2 6 85
- 0.529581 3 0 ack 40 ------- 1 3.0 0.2 6 85
+ 0.531589 1 4 tcp 1040 ------- 1 1.3 4.1 5 86
- 0.531589 1 4 tcp 1040 ------- 1 1.3 4.1 5 86
r 0.53278 3 1 ack 40 ------- 1 3.1 1.2 4 83
r 0.538246 3 1 ack 40 ------- 1 3.1 1.2 5 84
r 0.539584 3 0 ack 40 ------- 1 3.0 0.2 6 85
r 0.541672 1 4 tcp 1040 ------- 1 1.3 4.1 5 86
+ 0.541672 4 1 ack 40 ------- 1 4.1 1.3 5 87
- 0.541672 4 1 ack 40 ------- 1 4.1 1.3 5 87
+ 0.543946 1 3 tcp 1040 ------- 1 1.2 3.1 6 88
- 0.543946 1 3 tcp 1040 ------- 1 1.2 3.1 6 88
r 0.551676 4 1 ack 40 ------- 1 4.1 1.3 5 87
r 0.554029 1 3 tcp 1040 ------- 1 1.2 3.1 6 88
+ 0.554029 3 1 ack 40 ------- 1 3.1 1.2 6 89
- 0.554029 3 1 ack 40 ------- 1 3.1 1.2 6 89
+ 0.560784 2 4 tcp 1040 ------- 1 2.3 4.2 5 90
- 0.560784 2 4 tcp 1040 ------- 1 2.3 4.2 5 90
+ 0.563213 2 4 tcp 1040 ------- 1 2.3 4.2 6 91
- 0.563213 2 4 tcp 1040 ------- 1 2.3 4.2 6 91
r 0.564032 3 1 ack 40 ------- 1 3.1 1.2 6 89
+ 0.567131 1 2 tcp 1040 ------- 1 1.1 2.1 3 92
- 0.567131 1 2 tcp 1040 ------- 1 1.1 2.1 3 92
+ 0.567983 1 4 tcp 1040 ------- 1 1.3 4.1 6 93
- 0.567983 1 4 tcp 1040 ------- 1 1.3 4.1 6 93
r 0.570867 2 4 tcp 1040 ------- 1 2.3 4.2 5 90
+ 0.570867 4 2 ack 40 ------- 1 4.2 2.3 5 94
- 0.570867 4 2 ack 40 ------- 1 4.2 2.3 5 94
r 0.573296 2 4 tcp 1040 ------- 1 2.3 4.2 6 91
+ 0.573296 4 2 ack 40 ------- 1 4.2 2.3 6 95
- 0.573296 4 2 ack 40 ------- 1 4.2 2.3 6 95
r 0.577214 1 2 tcp 1040 ------- 1 1.1 2.1 3 92
+ 0.577214 2 1 ack 40 ------- 1 2.1 1.1 3 96
- 0.577214 2 1 ack 40 ------- 1 2.1 1.1 3 96
r 0.578066 1 4 tcp 1040 ------- 1 1.3 4.1 6 93
+ 0.578066 4 1 ack 40 ------- 1 4.1 1.3 6 97
- 0.578066 4 1 ack 40 ------- 1 4.1 1.3 6 97
r 0.58087 4 2 ack 40 ------- 1 4.2 2.3 5 94
r 0.583299 4 2 ack 40 ------- 1 4.2 2.3 6 95
+ 0.585022 0 4 tcp 1040 ---A--- 1 0.3 4.0 3 98
- 0.585022 0 4 tcp 1040 ---A--- 1 0.3 4.0 3 98
r 0.587217 2 1 ack 40 ------- 1 2.1 1.1 3 96
r 0.588069 4 1 ack 40 ------- 1 4.1 1.3 6 97
+ 0.593538 0 1 tcp 1040 ------- 1 0.0 1.0 4 99
- 0.593538 0 1 tcp 1040 ------- 1 0.0 1.0 4 99
r 0.595106 0 4 tcp 1040 ---A--- 1 0.3 4.0 3 98
+ 0.595106 4 0 ack 40 ------- 1 4.0 0.3 3 100
- 0.595106 4 0 ack 40 ------- 1 4.0 0.3 3 100
r 0.603621 0 1 tcp 1040 ------- 1 0.0 1.0 4 99
+ 0.603621 1 0 ack 40 ------- 1 1.0 0.0 4 101
- 0.603621 1 0 ack 40 ------- 1 1.0 0.0 4 101
r 0.605109 4 0 ack 40 ------- 1 4.0 0.3 3 100
+ 0.605109 0 4 tcp 1040 ------- 1 0.3 4.0 4 102
- 0.605109 0 4 tcp 1040 ------- 1 0.3 4.0 4 102
r 0.613624 1 0 ack 40 ------- 1 1.0 0.0 4 101
r 0.615192 0 4 tcp 1040 ------- 1 0.3 4.0 4 102
+ 0.615192 4 0 ack 40 ------- 1 4.0 0.3 4 103
- 0.615192 4 0 ack 40 ------- 1 4.0 0.3 4 103
r 0.625195 4 0 ack 40 ------- 1 4.0 0.3 4 103
+ 0.630289 0 4 tcp 1040 ------- 1 0.3 4.0 5 104
- 0.630289 0 4 tcp 1040 ------- 1 0.3 4.0 5 104
+ 0.638115 1 2 tcp 1040 ------- 1 1.1 2.1 4 105
- 0.638115 1 2 tcp 1040 ------- 1 1.1 2.1 4 105
r 0.640372 0 4 tcp 1040 ------- 1 0.3 4.0 5 104
+ 0.640372 4 0 ack 40 ------- 1 4.0 0.3 5 106
- 0.640372 4 0 ack 40 ------- 1 4.0 0.3 5 106
r 0.648198 1 2 tcp 1040 ------- 1 1.1 2.1 4 105
+ 0.648198 2 1 ack 40 ------- 1 2.1 1.1 4 107
- 0.648198 2 1 ack 40 ------- 1 2.1 1.1 4 107
r 0.650375 4 0 ack 40 ------- 1 4.0 0.3 5 106
+ 0.65648 0 1 tcp 1040 ------- 1 0.0 1.0 5 108
- 0.65648 0 1 tcp 1040 ------- 1 0.0 1.0 5 108
r 0.658201 2 1 ack 40 ------- 1 2.1 1.1 4 107
+ 0.661001 2 3 tcp 1040 ------- 1 2.2 3.2 4 109
- 0.661001 2 3 tcp 1040 ------- 1 2.2 3.2 4 109
r 0.666564 0 1 tcp 1040 ------- 1 0.0 1.0 5 108
+ 0.666564 1 0 ack 40 ------- 1 1.0 0.0 5 110
- 0.666564 1 0 ack 40 ------- 1 1.0 0.0 5 110
r 0.671084 2 3 tcp 1040 ------- 1 2.2 3.2 4 109
+ 0.671084 3 2 ack 40 ------- 1 3.2 2.2 4 111
- 0.671084 3 2 ack 40 ------- 1 3.2 2.2 4 111
+ 0.671221 2 3 tcp 1040 ------- 1 2.2 3.2 5 112
- 0.671221 2 3 tcp 1040 ------- 1 2.2 3.2 5 112
r 0.676567 1 0 ack 40 ------- 1 1.0 0.0 5 110
+ 0.677011 0 1 tcp 1040 ------- 1 0.0 1.0 6 113
- 0.677011 0 1 tcp 1040 ------- 1 0.0 1.0 6 113
+ 0.67713 0 3 tcp 1040 ------- 1 0.2 3.0 7 114
- 0.67713 0 3 tcp 1040 ------- 1 0.2 3.0 7 114
r 0.681087 3 2 ack 40 ------- 1 3.2 2.2 4 111
r 0.681304 2 3 tcp 1040 ------- 1 2.2 3.2 5 112
+ 0.681304 3 2 ack 40 ------- 1 3.2 2.2 5 115
- 0.681304 3 2 ack 40 ------- 1 3.2 2.2 5 115
r 0.687094 0 1 tcp 1040 ------- 1 0.0 1.0 6 113
+ 0.687094 1 0 ack 40 ------- 1 1.0 0.0 6 116
- 0.687094 1 0 ack 40 ------- 1 1.0 0.0 6 116
r 0.687213 0 3 tcp 1040 ------- 1 0.2 3.0 7 114
+ 0.687213 3 0 ack 40 ------- 1 3.0 0.2 7 117
- 0.687213 3 0 ack 40 ------- 1 3.0 0.2 7 117
+ 0.690404 0 1 tcp 1040 ------- 1 0.0 1.0 7 118
- 0.690404 0 1 tcp 1040 ------- 1 0.0 1.0 7 118
r 0.691307 3 2 ack 40 ------- 1 3.2 2.2 5 115
r 0.697097 1 0 ack 40 ------- 1 1.0 0.0 6 116
r 0.697217 3 0 ack 40 ------- 1 3.0 0.2 7 117
r 0.700487 0 1 tcp 1040 ------- 1 0.0 1.0 7 118
+ 0.700487 1 0 ack 40 ------- 1 1.0 0.0 7 119
- 0.700487 1 0 ack 40 ------- 1 1.0 0.0 7 119
+ 0.70296 2 3 tcp 1040 ------- 1 2.2 3.2 6 120
- 0.70296 2 3 tcp 1040 ------- 1 2.2 3.2 6 120
r 0.710491 1 0 ack 40 ------- 1 1.0 0.0 7 119
r 0.713044 2 3 tcp 1040 ------- 1 2.2 3.2 6 120
+ 0.713044 3 2 ack 40 ------- 1 3.2 2.2 6 121
- 0.713044 3 2 ack 40 ------- 1 3.2 2.2 6 121
+ 0.716135 1 3 tcp 1040 ------- 1 1.2 3.1 7 122
- 0.716135 1 3 tcp 1040 ------- 1 1.2 3.1 7 122
+ 0.716749 0 4 tcp 1040 ------- 1 0.3 4.0 6 123
- 0.716749 0 4 tcp 1040 ------- 1 0.3 4.0 6 123
+ 0.721078 0 1 tcp 1040 ------- 1 0.0 1.0 8 124
- 0.721078 0 1 tcp 1040 ------- 1 0.0 1.0 8 124
r 0.723047 3 2 ack 40 ------- 1 3.2 2.2 6 121
+ 0.725024 2 3 tcp 1040 ------- 1 2.2 3.2 7 125
- 0.725024 2 3 tcp 1040 ------- 1 2.2 3.2 7 125
r 0.726218 1 3 tcp 1040 ------- 1 1.2 3.1 7 122
+ 0.726218 3 1 ack 40 ------- 1 3.1 1.2 7 126
- 0.726218 3 1 ack 40 ------- 1 3.1 1.2 7 126
r 0.726832 0 4 tcp 1040 ------- 1 0.3 4.0 6 123
+ 0.726832 4 0 ack 40 ------- 1 4.0 0.3 6 127
- 0.726832 4 0 ack 40 ------- 1 4.0 0.3 6 127
+ 0.730555 0 3 tcp 1040 ------- 1 0.2 3.0 8 128
- 0.730555 0 3 tcp 1040 ------- 1 0.2 3.0 8 128
r 0.731162 0 1 tcp 1040 ------- 1 0.0 1.0 8 124
+ 0.731162 1 0 ack 40 ------- 1 1.0 0.0 8 129
- 0.731162 1 0 ack 40 ------- 1 1.0 0.0 8 129
r 0.735107 2 3 tcp 1040 ------- 1 2.2 3.2 7 125
+ 0.735107 3 2 ack 40 ------- 1 3.2 2.2 7 130
- 0.735107 3 2 ack 40 ------- 1 3.2 2.2 7 130
r 0.736222 3 1 ack 40 ------- 1 3.1 1.2 7 126
r 0.736835 4 0 ack 40 ------- 1 4.0 0.3 6 127
r 0.740638 0 3 tcp 1040 ------- 1 0.2 3.0 8 128
+ 0.740638 3 0 ack 40 ------- 1 3.0 0.2 8 131
- 0.740638 3 0 ack 40 ------- 1 3.0 0.2 8 131
r 0.741165 1 0 ack 40 ------- 1 1.0 0.0 8 129
+ 0.741464 0 1 tcp 1040 ------- 1 0.0 1.0 9 132
- 0.741464 0 1 tcp 1040 ------- 1 0.0 1.0 9 132
r 0.74511 3 2 ack 40 ------- 1 3.2 2.2 7 130
+ 0.749387 2 3 tcp 1040 ------- 1 2.2 3.2 8 133
- 0.749387 2 3 tcp 1040 ------- 1 2.2 3.2 8 133
r 0.750641 3 0 ack 40 ------- 1 3.0 0.2 8 131
r 0.751547 0 1 tcp 1040 ------- 1 0.0 1.0 9 132
+ 0.751547 1 0 ack 40 ------- 1 1.0 0.0 9 134
- 0.751547 1 0 ack 40 ------- 1 1.0 0.0 9 134
+ 0.758086 0 2 tcp 1040 ---A--- 1 0.1 2.0 2 135
- 0.758086 0 2 tcp 1040 ---A--- 1 0.1 2.0 2 135
r 0.75947 2 3 tcp 1040 ------- 1 2.2 3.2 8 133
+ 0.75947 3 2 ack 40 ------- 1 3.2 2.2 8 136
- 0.75947 3 2 ack 40 ------- 1 3.2 2.2 8 136
r 0.76155 1 0 ack 40 ------- 1 1.0 0.0 9 134
r 0.76817 0 2 tcp 1040 ---A--- 1 0.1 2.0 2 135
+ 0.76817 2 0 ack 40 ------- 1 2.0 0.1 2 137
- 0.76817 2 0 ack 40 ------- 1 2.0 0.1 2 137
r 0.769473 3 2 ack 40 ------- 1 3.2 2.2 8 136
+ 0.771573 0 3 tcp 1040 ------- 1 0.2 3.0 9 138
- 0.771573 0 3 tcp 1040 ------- 1 0.2 3.0 9 138
+ 0.775015 0 4 tcp 1040 ------- 1 0.3 4.0 7 139
- 0.775015 0 4 tcp 1040 ------- 1 0.3 4.0 7 139
r 0.778173 2 0 ack 40 ------- 1 2.0 0.1 2 137
r 0.781657 0 3 tcp 1040 ------- 1 0.2 3.0 9 138
+ 0.781657 3 0 ack 40 ------- 1 3.0 0.2 9 140
- 0.781657 3 0 ack 40 ------- 1 3.0 0.2 9 140
r 0.785098 0 4 tcp 1040 ------- 1 0.3 4.0 7 139
+ 0.785098 4 0 ack 40 ------- 1 4.0 0.3 7 141
- 0.785098 4 0 ack 40 ------- 1 4.0 0.3 7 141
r 0.79166 3 0 ack 40 ------- 1 3.0 0.2 9 140
r 0.795102 4 0 ack 40 ------- 1 4.0 0.3 7 141
+ 0.802511 2 4 tcp 1040 ---A--- 1 2.3 4.2 7 142
- 0.802511 2 4 tcp 1040 ---A--- 1 2.3 4.2 7 142
r 0.812594 2 4 tcp 1040 ---A--- 1 2.3 4.2 7 142
+ 0.812594 4 2 ack 40 ------- 1 4.2 2.3 7 143
- 0.812594 4 2 ack 40 ------- 1 4.2 2.3 7 143
+ 0.812843 3 4 tcp 1040 ---A--- 1 3.3 4.3 4 144
- 0.812843 3 4 tcp 1040 ---A--- 1 3.3 4.3 4 144
+ 0.818577 0 2 tcp 1040 ------- 1 0.1 2.0 3 145
- 0.818577 0 2 tcp 1040 ------- 1 0.1 2.0 3 145
+ 0.819401 1 3 tcp 1040 ------- 1 1.2 3.1 8 146
- 0.819401 1 3 tcp 1040 ------- 1 1.2 3.1 8 146
r 0.822597 4 2 ack 40 ------- 1 4.2 2.3 7 143
r 0.822927 3 4 tcp 1040 ---A--- 1 3.3 4.3 4 144
+ 0.822927 4 3 ack 40 ------- 1 4.3 3.3 4 147
- 0.822927 4 3 ack 40 ------- 1 4.3 3.3 4 147
+ 0.828619 1 3 tcp 1040 ------- 1 1.2 3.1 9 148
- 0.828619 1 3 tcp 1040 ------- 1 1.2 3.1 9 148
r 0.828661 0 2 tcp 1040 ------- 1 0.1 2.0 3 145
+ 0.828661 2 0 ack 40 ------- 1 2.0 0.1 3 149
- 0.828661 2 0 ack 40 ------- 1 2.0 0.1 3 149
r 0.829484 1 3 tcp 1040 ------- 1 1.2 3.1 8 146
+ 0.829484 3 1 ack 40 ------- 1 3.1 1.2 8 150
- 0.829484 3 1 ack 40 ------- 1 3.1 1.2 8 150
r 0.83293 4 3 ack 40 ------- 1 4.3 3.3 4 147
r 0.838664 2 0 ack 40 ------- 1 2.0 0.1 3 149
r 0.838703 1 3 tcp 1040 ------- 1 1.2 3.1 9 148
+ 0.838703 3 1 ack 40 ------- 1 3.1 1.2 9 151
- 0.838703 3 1 ack 40 ------- 1 3.1 1.2 9 151
+ 0.839434 2 3 tcp 1040 ------- 1 2.2 3.2 9 152
- 0.839434 2 3 tcp 1040 ------- 1 2.2 3.2 9 152
r 0.839488 3 1 ack 40 ------- 1 3.1 1.2 8 150
r 0.848706 3 1 ack 40 ------- 1 3.1 1.2 9 151
r 0.849517 2 3 tcp 1040 ------- 1 2.2 3.2 9 152
+ 0.849517 3 2 ack 40 ------- 1 3.2 2.2 9 153
- 0.849517 3 2 ack 40 ------- 1 3.2 2.2 9 153
+ 0.854863 0 2 tcp 1040 ------- 1 0.1 2.0 4 154
- 0.854863 0 2 tcp 1040 ------- 1 0.1 2.0 4 154
r 0.859521 3 2 ack 40 ------- 1 3.2 2.2 9 153
r 0.864946 0 2 tcp 1040 ------- 1 0.1 2.0 4 154
+ 0.864946 2 0 ack 40 ------- 1 2.0 0.1 4 155
- 0.864946 2 0 ack 40 ------- 1 2.0 0.1 4 155
+ 0.867289 1 4 tcp 1040 ---A--- 1 1.3 4.1 7 156
- 0.867289 1 4 tcp 1040 ---A--- 1 1.3 4.1 7 156
+ 0.870029 0 3 tcp 1040 ------- 1 0.2 3.0 10 157
- 0.870029 0 3 tcp 1040 ------- 1 0.2 3.0 10 157
r 0.874949 2 0 ack 40 ------- 1 2.0 0.1 4 155
r 0.877373 1 4 tcp 1040 ---A--- 1 1.3 4.1 7 156
+ 0.877373 4 1 ack 40 ------- 1 4.1 1.3 7 158
- 0.877373 4 1 ack 40 ------- 1 4.1 1.3 7 158
r 0.880112 0 3 tcp 1040 ------- 1 0.2 3.0 10 157
+ 0.880112 3 0 ack 40 ------- 1 3.0 0.2 10 159
- 0.880112 3 0 ack 40 ------- 1 3.0 0.2 10 159
+ 0.880929 1 2 tcp 1040 ---A--- 1 1.1 2.1 5 160
- 0.880929 1 2 tcp 1040 ---A--- 1 1.1 2.1 5 160
r 0.887376 4 1 ack 40 ------- 1 4.1 1.3 7 158
r 0.890116 3 0 ack 40 ------- 1 3.0 0.2 10 159
r 0.891013 1 2 tcp 1040 ---A--- 1 1.1 2.1 5 160
+ 0.891013 2 1 ack 40 ------- 1 2.1 1.1 5 161
- 0.891013 2 1 ack 40 ------- 1 2.1 1.1 5 161
r 0.901016 2 1 ack 40 ------- 1 2.1 1.1 5 161
+ 0.901016 1 2 tcp 1040 ------- 1 1.1 2.1 6 162
- 0.901016 1 2 tcp 1040 ------- 1 1.1 2.1 6 162
+ 0.906354 1 2 tcp 1040 ------- 1 1.1 2.1 7 163
- 0.906354 1 2 tcp 1040 ------- 1 1.1 2.1 7 163
r 0.911099 1 2 tcp 1040 ------- 1 1.1 2.1 6 162
+ 0.911099 2 1 ack 40 ------- 1 2.1 1.1 6 164
- 0.911099 2 1 ack 40 ------- 1 2.1 1.1 6 164
r 0.916437 1 2 tcp 1040 ------- 1 1.1 2.1 7 163
+ 0.916437 2 1 ack 40 ------- 1 2.1 1.1 7 165
- 0.916437 2 1 ack 40 ------- 1 2.1 1.1 7 165
r 0.921102 2 1 ack 40 ------- 1 2.1 1.1 6 164
+ 0.923041 3 4 tcp 1040 ------- 1 3.3 4.3 5 166
- 0.923041 3 4 tcp 1040 ------- 1 3.3 4.3 5 166
r 0.92644 2 1 ack 40 ------- 1 2.1 1.1 7 165
+ 0.927942 1 2 tcp 1040 ------- 1 1.1 2.1 8 167
- 0.927942 1 2 tcp 1040 ------- 1 1.1 2.1 8 167
+ 0.931183 0 1 tcp 1040 ------- 1 0.0 1.0 10 168
- 0.931183 0 1 tcp 1040 ------- 1 0.0 1.0 10 168
r 0.933124 3 4 tcp 1040 ------- 1 3.3 4.3 5 166
+ 0.933124 4 3 ack 40 ------- 1 4.3 3.3 5 169
- 0.933124 4 3 ack 40 ------- 1 4.3 3.3 5 169
r 0.938025 1 2 tcp 1040 ------- 1 1.1 2.1 8 167
+ 0.938025 2 1 ack 40 ------- 1 2.1 1.1 8 170
- 0.938025 2 1 ack 40 ------- 1 2.1 1.1 8 170
+ 0.940152 2 3 tcp 1040 ------- 1 2.2 3.2 10 171
- 0.940152 2 3 tcp 1040 ------- 1 2.2 3.2 10 171
r 0.941267 0 1 tcp 1040 ------- 1 0.0 1.0 10 168
+ 0.941267 1 0 ack 40 ------- 1 1.0 0.0 10 172
- 0.941267 1 0 ack 40 ------- 1 1.0 0.0 10 172
r 0.943127 4 3 ack 40 ------- 1 4.3 3.3 5 169
r 0.948028 2 1 ack 40 ------- 1 2.1 1.1 8 170
r 0.950235 2 3 tcp 1040 ------- 1 2.2 3.2 10 171
+ 0.950235 3 2 ack 40 ------- 1 3.2 2.2 10 173
- 0.950235 3 2 ack 40 ------- 1 3.2 2.2 10 173
r 0.95127 1 0 ack 40 ------- 1 1.0 0.0 10 172
+ 0.959256 0 1 tcp 1040 ------- 1 0.0 1.0 11 174
- 0.959256 0 1 tcp 1040 ------- 1 0.0 1.0 11 174
r 0.960239 3 2 ack 40 ------- 1 3.2 2.2 10 173
r 0.969339 0 1 tcp 1040 ------- 1 0.0 1.0 11 174
+ 0.969339 1 0 ack 40 ------- 1 1.0 0.0 11 175
- 0.969339 1 0 ack 40 ------- 1 1.0 0.0 11 175
+ 0.973611 0 2 tcp 1040 ------- 1 0.1 2.0 5 176
- 0.973611 0 2 tcp 1040 ------- 1 0.1 2.0 5 176
r 0.979342 1 0 ack 40 ------- 1 1.0 0.0 11 175
+ 0.982875 0 1 tcp 1040 ------- 1 0.0 1.0 12 177
- 0.982875 0 1 tcp 1040 ------- 1 0.0 1.0 12 177
+ 0.983432 0 3 tcp 1040 ------- 1 0.2 3.0 11 178
- 0.983432 0 3 tcp 1040 ------- 1 0.2 3.0 11 178
r 0.983694 0 2 tcp 1040 ------- 1 0.1 2.0 5 176
+ 0.983694 2 0 ack 40 ------- 1 2.0 0.1 5 179
- 0.983694 2 0 ack 40 ------- 1 2.0 0.1 5 179
+ 0.988708 2 3 tcp 1040 ------- 1 2.2 3.2 11 180
- 0.988708 2 3 tcp 1040 ------- 1 2.2 3.2 11 180
r 0.992959 0 1 tcp 1040 ------- 1 0.0 1.0 12 177
+ 0.992959 1 0 ack 40 ------- 1 1.0 0.0 12 181
- 0.992959 1 0 ack 40 ------- 1 1.0 0.0 12 181
r 0.993515 0 3 tcp 1040 ------- 1 0.2 3.0 11 178
+ 0.993515 3 0 ack 40 ------- 1 3.0 0.2 11 182
- 0.993515 3 0 ack 40 ------- 1 3.0 0.2 11 182
r 0.993697 2 0 ack 40 ------- 1 2.0 0.1 5 179
r 0.998791 2 3 tcp 1040 ------- 1 2.2 3.2 11 180
+ 0.998791 3 2 ack 40 ------- 1 3.2 2.2 11 183
- 0.998791 3 2 ack 40 ------- 1 3.2 2.2 11 183
r 1.002962 1 0 ack 40 ------- 1 1.0 0.0 12 181
r 1.003518 3 0 ack 40 ------- 1 3.0 0.2 11 182
r 1.008794 3 2 ack 40 ------- 1 3.2 2.2 11 183
+ 1.03886 0 2 tcp 1040 ------- 1 0.1 2.0 6 184
- 1.03886 0 2 tcp 1040 ------- 1 0.1 2.0 6 184
r 1.048943 0 2 tcp 1040 ------- 1 0.1 2.0 6 184
+ 1.048943 2 0 ack 40 ------- 1 2.0 0.1 6 185
- 1.048943 2 0 ack 40 ------- 1 2.0 0.1 6 185
+ 1.050886 2 4 tcp 1040 ---A--- 1 2.3 4.2 8 186
- 1.050886 2 4 tcp 1040 ---A--- 1 2.3 4.2 8 186
r 1.058946 2 0 ack 40 ------- 1 2.0 0.1 6 185
r 1.060969 2 4 tcp 1040 ---A--- 1 2.3 4.2 8 186
+ 1.060969 4 2 ack 40 ------- 1 4.2 2.3 8 187
- 1.060969 4 2 ack 40 ------- 1 4.2 2.3 8 187
+ 1.062446 0 1 tcp 1040 ------- 1 0.0 1.0 13 188
- 1.062446 0 1 tcp 1040 ------- 1 0.0 1.0 13 188
r 1.070972 4 2 ack 40 ------- 1 4.2 2.3 8 187
r 1.072529 0 1 tcp 1040 ------- 1 0.0 1.0 13 188
+ 1.072529 1 0 ack 40 ------- 1 1.0 0.0 13 189
- 1.072529 1 0 ack 40 ------- 1 1.0 0.0 13 189
r 1.082533 1 0 ack 40 ------- 1 1.0 0.0 13 189
+ 1.099522 3 4 tcp 1040 ------- 1 3.3 4.3 6 190
- 1.099522 3 4 tcp 1040 ------- 1 3.3 4.3 6 190
r 1.109605 3 4 tcp 1040 ------- 1 3.3 4.3 6 190
+ 1.109605 4 3 ack 40 ------- 1 4.3 3.3 6 191
- 1.109605 4 3 ack 40 ------- 1 4.3 3.3 6 191
r 1.119609 4 3 ack 40 ------- 1 4.3 3.3 6 191
+ 1.120977 0 2 tcp 1040 ------- 1 0.1 2.0 7 192
- 1.120977 0 2 tcp 1040 ------- 1 0.1 2.0 7 192
r 1.13106 0 2 tcp 1040 ------- 1 0.1 2.0 7 192
+ 1.13106 2 0 ack 40 ------- 1 2.0 0.1 7 193
- 1.13106 2 0 ack 40 ------- 1 2.0 0.1 7 193
+ 1.131578 0 2 tcp 1040 ------- 1 0.1 2.0 8 194
- 1.131578 0 2 tcp 1040 ------- 1 0.1 2.0 8 194
+ 1.133617 2 4 tcp 1040 ------- 1 2.3 4.2 9 195
- 1.133617 2 4 tcp 1040 ------- 1 2.3 4.2 9 195
+ 1.140639 0 3 tcp 1040 ------- 1 0.2 3.0 12 196
- 1.140639 0 3 tcp 1040 ------- 1 0.2 3.0 12 196
r 1.141064 2 0 ack 40 ------- 1 2.0 0.1 7 193
r 1.141661 0 2 tcp 1040 ------- 1 0.1 2.0 8 194
+ 1.141661 2 0 ack 40 ------- 1 2.0 0.1 8 197
- 1.141661 2 0 ack 40 ------- 1 2.0 0.1 8 197
r 1.1437 2 4 tcp 1040 ------- 1 2.3 4.2 9 195
+ 1.1437 4 2 ack 40 ------- 1 4.2 2.3 9 198
- 1.1437 4 2 ack 40 ------- 1 4.2 2.3 9 198
r 1.150722 0 3 tcp 1040 ------- 1 0.2 3.0 12 196
+ 1.150722 3 0 ack 40 ------- 1 3.0 0.2 12 199
- 1.150722 3 0 ack 40 ------- 1 3.0 0.2 12 199
r 1.151665 2 0 ack 40 ------- 1 2.0 0.1 8 197
r 1.153703 4 2 ack 40 ------- 1 4.2 2.3 9 198
r 1.160725 3 0 ack 40 ------- 1 3.0 0.2 12 199
+ 1.170375 1 3 tcp 1040 ---A--- 1 1.2 3.1 10 200
- 1.170375 1 3 tcp 1040 ---A--- 1 1.2 3.1 10 200
+ 1.172946 0 1 tcp 1040 ------- 1 0.0 1.0 14 201
- 1.172946 0 1 tcp 1040 ------- 1 0.0 1.0 14 201
r 1.180459 1 3 tcp 1040 ---A--- 1 1.2 3.1 10 200
+ 1.180459 3 1 ack 40 ------- 1 3.1 1.2 10 202
- 1.180459 3 1 ack 40 ------- 1 3.1 1.2 10 202
r 1.183029 0 1 tcp 1040 ------- 1 0.0 1.0 14 201
+ 1.183029 1 0 ack 40 ------- 1 1.0 0.0 14 203
- 1.183029 1 0 ack 40 ------- 1 1.0 0.0 14 203
r 1.190462 3 1 ack 40 ------- 1 3.1 1.2 10 202
r 1.193032 1 0 ack 40 ------- 1 1.0 0.0 14 203
