+ 0.2 0 1 tcp 40 ------- 1 0.0 1.0 0 0
- 0.2 0 1 tcp 40 ------- 1 0.0 1.0 0 0
+ 0.2 1 2 tcp 40 ------- 1 1.1 2.0 0 1
- 0.2 1 2 tcp 40 ------- 1 1.1 2.0 0 1
+ 0.2 2 3 tcp 40 ------- 1 2.1 3.0 0 2
- 0.2 2 3 tcp 40 ------- 1 2.1 3.0 0 2
+ 0.2 3 4 tcp 40 ------- 1 3.1 4.0 0 3
- 0.2 3 4 tcp 40 ------- 1 3.1 4.0 0 3
+ 0.2 4 0 tcp 40 ------- 1 4.1 0.1 0 4
- 0.2 4 0 tcp 40 ------- 1 4.1 0.1 0 4
r 0.210002 0 1 tcp 40 ------- 1 0.0 1.0 0 0
+ 0.210002 1 0 ack 40 ------- 1 1.0 0.0 0 5
- 0.210002 1 0 ack 40 ------- 1 1.0 0.0 0 5
r 0.210002 1 2 tcp 40 ------- 1 1.1 2.0 0 1
+ 0.210002 2 1 ack 40 ------- 1 2.0 1.1 0 6
- 0.210002 2 1 ack 40 ------- 1 2.0 1.1 0 6
r 0.210002 2 3 tcp 40 ------- 1 2.1 3.0 0 2
+ 0.210002 3 2 ack 40 ------- 1 3.0 2.1 0 7
- 0.210002 3 2 ack 40 ------- 1 3.0 2.1 0 7
r 0.210002 3 4 tcp 40 ------- 1 3.1 4.0 0 3
+ 0.210002 4 3 ack 40 ------- 1 4.0 3.1 0 8
- 0.210002 4 3 ack 40 ------- 1 4.0 3.1 0 8
r 0.210002 4 0 tcp 40 ------- 1 4.1 0.1 0 4
+ 0.210002 0 4 ack 40 ------- 1 0.1 4.1 0 9
- 0.210002 0 4 ack 40 ------- 1 0.1 4.1 0 9
r 0.220003 1 0 ack 40 ------- 1 1.0 0.0 0 5
+ 0.220003 0 1 tcp 1040 ------- 1 0.0 1.0 1 10
- 0.220003 0 1 tcp 1040 ------- 1 0.0 1.0 1 10
+ 0.220003 0 1 tcp 1040 ------- 1 0.0 1.0 2 11
r 0.220003 2 1 ack 40 ------- 1 2.0 1.1 0 6
+ 0.220003 1 2 tcp 1040 ------- 1 1.1 2.0 1 12
- 0.220003 1 2 tcp 1040 ------- 1 1.1 2.0 1 12
+ 0.220003 1 2 tcp 1040 ------- 1 1.1 2.0 2 13
r 0.220003 3 2 ack 40 ------- 1 3.0 2.1 0 7
+ 0.220003 2 3 tcp 1040 ------- 1 2.1 3.0 1 14
- 0.220003 2 3 tcp 1040 ------- 1 2.1 3.0 1 14
+ 0.220003 2 3 tcp 1040 ------- 1 2.1 3.0 2 15
r 0.220003 4 3 ack 40 ------- 1 4.0 3.1 0 8
+ 0.220003 3 4 tcp 1040 ------- 1 3.1 4.0 1 16
- 0.220003 3 4 tcp 1040 ------- 1 3.1 4.0 1 16
+ 0.220003 3 4 tcp 1040 ------- 1 3.1 4.0 2 17
r 0.220003 0 4 ack 40 ------- 1 0.1 4.1 0 9
+ 0.220003 4 0 tcp 1040 ------- 1 4.1 0.1 1 18
- 0.220003 4 0 tcp 1040 ------- 1 4.1 0.1 1 18
+ 0.220003 4 0 tcp 1040 ------- 1 4.1 0.1 2 19
- 0.220045 0 1 tcp 1040 ------- 1 0.0 1.0 2 11
- 0.220045 1 2 tcp 1040 ------- 1 1.1 2.0 2 13
- 0.220045 2 3 tcp 1040 ------- 1 2.1 3.0 2 15
- 0.220045 3 4 tcp 1040 ------- 1 3.1 4.0 2 17
- 0.220045 4 0 tcp 1040 ------- 1 4.1 0.1 2 19
r 0.230045 0 1 tcp 1040 ------- 1 0.0 1.0 1 10
+ 0.230045 1 0 ack 40 ------- 1 1.0 0.0 1 20
- 0.230045 1 0 ack 40 ------- 1 1.0 0.0 1 20
r 0.230045 1 2 tcp 1040 ------- 1 1.1 2.0 1 12
+ 0.230045 2 1 ack 40 ------- 1 2.0 1.1 1 21
- 0.230045 2 1 ack 40 ------- 1 2.0 1.1 1 21
r 0.230045 2 3 tcp 1040 ------- 1 2.1 3.0 1 14
+ 0.230045 3 2 ack 40 ------- 1 3.0 2.1 1 22
- 0.230045 3 2 ack 40 ------- 1 3.0 2.1 1 22
r 0.230045 3 4 tcp 1040 ------- 1 3.1 4.0 1 16
+ 0.230045 4 3 ack 40 ------- 1 4.0 3.1 1 23
- 0.230045 4 3 ack 40 ------- 1 4.0 3.1 1 23
r 0.230045 4 0 tcp 1040 ------- 1 4.1 0.1 1 18
+ 0.230045 0 4 ack 40 ------- 1 0.1 4.1 1 24
- 0.230045 0 4 ack 40 ------- 1 0.1 4.1 1 24
r 0.230086 0 1 tcp 1040 ------- 1 0.0 1.0 2 11
+ 0.230086 1 0 ack 40 ------- 1 1.0 0.0 2 25
- 0.230086 1 0 ack 40 ------- 1 1.0 0.0 2 25
r 0.230086 1 2 tcp 1040 ------- 1 1.1 2.0 2 13
+ 0.230086 2 1 ack 40 ------- 1 2.0 1.1 2 26
- 0.230086 2 1 ack 40 ------- 1 2.0 1.1 2 26
r 0.230086 2 3 tcp 1040 ------- 1 2.1 3.0 2 15
+ 0.230086 3 2 ack 40 ------- 1 3.0 2.1 2 27
- 0.230086 3 2 ack 40 ------- 1 3.0 2.1 2 27
r 0.230086 3 4 tcp 1040 ------- 1 3.1 4.0 2 17
+ 0.230086 4 3 ack 40 ------- 1 4.0 3.1 2 28
- 0.230086 4 3 ack 40 ------- 1 4.0 3.1 2 28
r 0.230086 4 0 tcp 1040 ------- 1 4.1 0.1 2 19
+ 0.230086 0 4 ack 40 ------- 1 0.1 4.1 2 29
- 0.230086 0 4 ack 40 ------- 1 0.1 4.1 2 29
r 0.240046 1 0 ack 40 ------- 1 1.0 0.0 1 20
+ 0.240046 0 1 tcp 1040 ------- 1 0.0 1.0 3 30
- 0.240046 0 1 tcp 1040 ------- 1 0.0 1.0 3 30
+ 0.240046 0 1 tcp 1040 ------- 1 0.0 1.0 4 31
r 0.240046 2 1 ack 40 ------- 1 2.0 1.1 1 21
+ 0.240046 1 2 tcp 1040 ------- 1 1.1 2.0 3 32
- 0.240046 1 2 tcp 1040 ------- 1 1.1 2.0 3 32
+ 0.240046 1 2 tcp 1040 ------- 1 1.1 2.0 4 33
r 0.240046 3 2 ack 40 ------- 1 3.0 2.1 1 22
+ 0.240046 2 3 tcp 1040 ------- 1 2.1 3.0 3 34
- 0.240046 2 3 tcp 1040 ------- 1 2.1 3.0 3 34
+ 0.240046 2 3 tcp 1040 ------- 1 2.1 3.0 4 35
r 0.240046 4 3 ack 40 ------- 1 4.0 3.1 1 23
+ 0.240046 3 4 tcp 1040 ------- 1 3.1 4.0 3 36
- 0.240046 3 4 tcp 1040 ------- 1 3.1 4.0 3 36
+ 0.240046 3 4 tcp 1040 ------- 1 3.1 4.0 4 37
r 0.240046 0 4 ack 40 ------- 1 0.1 4.1 1 24
+ 0.240046 4 0 tcp 1040 ------- 1 4.1 0.1 3 38
- 0.240046 4 0 tcp 1040 ------- 1 4.1 0.1 3 38
+ 0.240046 4 0 tcp 1040 ------- 1 4.1 0.1 4 39
r 0.240088 1 0 ack 40 ------- 1 1.0 0.0 2 25
+ 0.240088 0 1 tcp 1040 ------- 1 0.0 1.0 5 40
+ 0.240088 0 1 tcp 1040 ------- 1 0.0 1.0 6 41
r 0.240088 2 1 ack 40 ------- 1 2.0 1.1 2 26
+ 0.240088 1 2 tcp 1040 ------- 1 1.1 2.0 5 42
+ 0.240088 1 2 tcp 1040 ------- 1 1.1 2.0 6 43
r 0.240088 3 2 ack 40 ------- 1 3.0 2.1 2 27
+ 0.240088 2 3 tcp 1040 ------- 1 2.1 3.0 5 44
+ 0.240088 2 3 tcp 1040 ------- 1 2.1 3.0 6 45
r 0.240088 4 3 ack 40 ------- 1 4.0 3.1 2 28
+ 0.240088 3 4 tcp 1040 ------- 1 3.1 4.0 5 46
+ 0.240088 3 4 tcp 1040 ------- 1 3.1 4.0 6 47
r 0.240088 0 4 ack 40 ------- 1 0.1 4.1 2 29
+ 0.240088 4 0 tcp 1040 ------- 1 4.1 0.1 5 48
+ 0.240088 4 0 tcp 1040 ------- 1 4.1 0.1 6 49
- 0.240088 0 1 tcp 1040 ------- 1 0.0 1.0 4 31
- 0.240088 1 2 tcp 1040 ------- 1 1.1 2.0 4 33
- 0.240088 2 3 tcp 1040 ------- 1 2.1 3.0 4 35
- 0.240088 3 4 tcp 1040 ------- 1 3.1 4.0 4 37
- 0.240088 4 0 tcp 1040 ------- 1 4.1 0.1 4 39
- 0.24013 0 1 tcp 1040 ------- 1 0.0 1.0 5 40
- 0.24013 1 2 tcp 1040 ------- 1 1.1 2.0 5 42
- 0.24013 2 3 tcp 1040 ------- 1 2.1 3.0 5 44
- 0.24013 3 4 tcp 1040 ------- 1 3.1 4.0 5 46
- 0.24013 4 0 tcp 1040 ------- 1 4.1 0.1 5 48
- 0.240171 0 1 tcp 1040 ------- 1 0.0 1.0 6 41
- 0.240171 1 2 tcp 1040 ------- 1 1.1 2.0 6 43
- 0.240171 2 3 tcp 1040 ------- 1 2.1 3.0 6 45
- 0.240171 3 4 tcp 1040 ------- 1 3.1 4.0 6 47
- 0.240171 4 0 tcp 1040 ------- 1 4.1 0.1 6 49
r 0.250088 0 1 tcp 1040 ------- 1 0.0 1.0 3 30
+ 0.250088 1 0 ack 40 ------- 1 1.0 0.0 3 50
- 0.250088 1 0 ack 40 ------- 1 1.0 0.0 3 50
r 0.250088 1 2 tcp 1040 ------- 1 1.1 2.0 3 32
+ 0.250088 2 1 ack 40 ------- 1 2.0 1.1 3 51
- 0.250088 2 1 ack 40 ------- 1 2.0 1.1 3 51
r 0.250088 2 3 tcp 1040 ------- 1 2.1 3.0 3 34
+ 0.250088 3 2 ack 40 ------- 1 3.0 2.1 3 52
- 0.250088 3 2 ack 40 ------- 1 3.0 2.1 3 52
r 0.250088 3 4 tcp 1040 ------- 1 3.1 4.0 3 36
+ 0.250088 4 3 ack 40 ------- 1 4.0 3.1 3 53
- 0.250088 4 3 ack 40 ------- 1 4.0 3.1 3 53
r 0.250088 4 0 tcp 1040 ------- 1 4.1 0.1 3 38
+ 0.250088 0 4 ack 40 ------- 1 0.1 4.1 3 54
- 0.250088 0 4 ack 40 ------- 1 0.1 4.1 3 54
r 0.25013 0 1 tcp 1040 ------- 1 0.0 1.0 4 31
+ 0.25013 1 0 ack 40 ------- 1 1.0 0.0 4 55
- 0.25013 1 0 ack 40 ------- 1 1.0 0.0 4 55
r 0.25013 1 2 tcp 1040 ------- 1 1.1 2.0 4 33
+ 0.25013 2 1 ack 40 ------- 1 2.0 1.1 4 56
- 0.25013 2 1 ack 40 ------- 1 2.0 1.1 4 56
r 0.25013 2 3 tcp 1040 ------- 1 2.1 3.0 4 35
+ 0.25013 3 2 ack 40 ------- 1 3.0 2.1 4 57
- 0.25013 3 2 ack 40 ------- 1 3.0 2.1 4 57
r 0.25013 3 4 tcp 1040 ------- 1 3.1 4.0 4 37
+ 0.25013 4 3 ack 40 ------- 1 4.0 3.1 4 58
- 0.25013 4 3 ack 40 ------- 1 4.0 3.1 4 58
r 0.25013 4 0 tcp 1040 ------- 1 4.1 0.1 4 39
+ 0.25013 0 4 ack 40 ------- 1 0.1 4.1 4 59
- 0.25013 0 4 ack 40 ------- 1 0.1 4.1 4 59
r 0.250171 0 1 tcp 1040 ------- 1 0.0 1.0 5 40
+ 0.250171 1 0 ack 40 ------- 1 1.0 0.0 5 60
- 0.250171 1 0 ack 40 ------- 1 1.0 0.0 5 60
r 0.250171 1 2 tcp 1040 ------- 1 1.1 2.0 5 42
+ 0.250171 2 1 ack 40 ------- 1 2.0 1.1 5 61
- 0.250171 2 1 ack 40 ------- 1 2.0 1.1 5 61
r 0.250171 2 3 tcp 1040 ------- 1 2.1 3.0 5 44
+ 0.250171 3 2 ack 40 ------- 1 3.0 2.1 5 62
- 0.250171 3 2 ack 40 ------- 1 3.0 2.1 5 62
r 0.250171 3 4 tcp 1040 ------- 1 3.1 4.0 5 46
+ 0.250171 4 3 ack 40 ------- 1 4.0 3.1 5 63
- 0.250171 4 3 ack 40 ------- 1 4.0 3.1 5 63
r 0.250171 4 0 tcp 1040 ------- 1 4.1 0.1 5 48
+ 0.250171 0 4 ack 40 ------- 1 0.1 4.1 5 64
- 0.250171 0 4 ack 40 ------- 1 0.1 4.1 5 64
r 0.250213 0 1 tcp 1040 ------- 1 0.0 1.0 6 41
+ 0.250213 1 0 ack 40 ------- 1 1.0 0.0 6 65
- 0.250213 1 0 ack 40 ------- 1 1.0 0.0 6 65
r 0.250213 1 2 tcp 1040 ------- 1 1.1 2.0 6 43
+ 0.250213 2 1 ack 40 ------- 1 2.0 1.1 6 66
- 0.250213 2 1 ack 40 ------- 1 2.0 1.1 6 66
r 0.250213 2 3 tcp 1040 ------- 1 2.1 3.0 6 45
+ 0.250213 3 2 ack 40 ------- 1 3.0 2.1 6 67
- 0.250213 3 2 ack 40 ------- 1 3.0 2.1 6 67
r 0.250213 3 4 tcp 1040 ------- 1 3.1 4.0 6 47
+ 0.250213 4 3 ack 40 ------- 1 4.0 3.1 6 68
- 0.250213 4 3 ack 40 ------- 1 4.0 3.1 6 68
r 0.250213 4 0 tcp 1040 ------- 1 4.1 0.1 6 49
+ 0.250213 0 4 ack 40 ------- 1 0.1 4.1 6 69
- 0.250213 0 4 ack 40 ------- 1 0.1 4.1 6 69
r 0.26009 1 0 ack 40 ------- 1 1.0 0.0 3 50
+ 0.26009 0 1 tcp 1040 ------- 1 0.0 1.0 7 70
- 0.26009 0 1 tcp 1040 ------- 1 0.0 1.0 7 70
+ 0.26009 0 1 tcp 1040 ------- 1 0.0 1.0 8 71
r 0.26009 2 1 ack 40 ------- 1 2.0 1.1 3 51
+ 0.26009 1 2 tcp 1040 ------- 1 1.1 2.0 7 72
- 0.26009 1 2 tcp 1040 ------- 1 1.1 2.0 7 72
+ 0.26009 1 2 tcp 1040 ------- 1 1.1 2.0 8 73
r 0.26009 3 2 ack 40 ------- 1 3.0 2.1 3 52
+ 0.26009 2 3 tcp 1040 ------- 1 2.1 3.0 7 74
- 0.26009 2 3 tcp 1040 ------- 1 2.1 3.0 7 74
+ 0.26009 2 3 tcp 1040 ------- 1 2.1 3.0 8 75
r 0.26009 4 3 ack 40 ------- 1 4.0 3.1 3 53
+ 0.26009 3 4 tcp 1040 ------- 1 3.1 4.0 7 76
- 0.26009 3 4 tcp 1040 ------- 1 3.1 4.0 7 76
+ 0.26009 3 4 tcp 1040 ------- 1 3.1 4.0 8 77
r 0.26009 0 4 ack 40 ------- 1 0.1 4.1 3 54
+ 0.26009 4 0 tcp 1040 ------- 1 4.1 0.1 7 78
- 0.26009 4 0 tcp 1040 ------- 1 4.1 0.1 7 78
+ 0.26009 4 0 tcp 1040 ------- 1 4.1 0.1 8 79
r 0.260131 1 0 ack 40 ------- 1 1.0 0.0 4 55
+ 0.260131 0 1 tcp 1040 ------- 1 0.0 1.0 9 80
+ 0.260131 0 1 tcp 1040 ------- 1 0.0 1.0 10 81
r 0.260131 2 1 ack 40 ------- 1 2.0 1.1 4 56
+ 0.260131 1 2 tcp 1040 ------- 1 1.1 2.0 9 82
+ 0.260131 1 2 tcp 1040 ------- 1 1.1 2.0 10 83
r 0.260131 3 2 ack 40 ------- 1 3.0 2.1 4 57
+ 0.260131 2 3 tcp 1040 ------- 1 2.1 3.0 9 84
+ 0.260131 2 3 tcp 1040 ------- 1 2.1 3.0 10 85
r 0.260131 4 3 ack 40 ------- 1 4.0 3.1 4 58
+ 0.260131 3 4 tcp 1040 ------- 1 3.1 4.0 9 86
+ 0.260131 3 4 tcp 1040 ------- 1 3.1 4.0 10 87
r 0.260131 0 4 ack 40 ------- 1 0.1 4.1 4 59
+ 0.260131 4 0 tcp 1040 ------- 1 4.1 0.1 9 88
+ 0.260131 4 0 tcp 1040 ------- 1 4.1 0.1 10 89
- 0.260131 0 1 tcp 1040 ------- 1 0.0 1.0 8 71
- 0.260131 1 2 tcp 1040 ------- 1 1.1 2.0 8 73
- 0.260131 2 3 tcp 1040 ------- 1 2.1 3.0 8 75
- 0.260131 3 4 tcp 1040 ------- 1 3.1 4.0 8 77
- 0.260131 4 0 tcp 1040 ------- 1 4.1 0.1 8 79
- 0.260173 0 1 tcp 1040 ------- 1 0.0 1.0 9 80
- 0.260173 1 2 tcp 1040 ------- 1 1.1 2.0 9 82
- 0.260173 2 3 tcp 1040 ------- 1 2.1 3.0 9 84
- 0.260173 3 4 tcp 1040 ------- 1 3.1 4.0 9 86
- 0.260173 4 0 tcp 1040 ------- 1 4.1 0.1 9 88
r 0.260173 1 0 ack 40 ------- 1 1.0 0.0 5 60
+ 0.260173 0 1 tcp 1040 ------- 1 0.0 1.0 11 90
+ 0.260173 0 1 tcp 1040 ------- 1 0.0 1.0 12 91
r 0.260173 2 1 ack 40 ------- 1 2.0 1.1 5 61
+ 0.260173 1 2 tcp 1040 ------- 1 1.1 2.0 11 92
+ 0.260173 1 2 tcp 1040 ------- 1 1.1 2.0 12 93
r 0.260173 3 2 ack 40 ------- 1 3.0 2.1 5 62
+ 0.260173 2 3 tcp 1040 ------- 1 2.1 3.0 11 94
+ 0.260173 2 3 tcp 1040 ------- 1 2.1 3.0 12 95
r 0.260173 4 3 ack 40 ------- 1 4.0 3.1 5 63
+ 0.260173 3 4 tcp 1040 ------- 1 3.1 4.0 11 96
+ 0.260173 3 4 tcp 1040 ------- 1 3.1 4.0 12 97
r 0.260173 0 4 ack 40 ------- 1 0.1 4.1 5 64
+ 0.260173 4 0 tcp 1040 ------- 1 4.1 0.1 11 98
+ 0.260173 4 0 tcp 1040 ------- 1 4.1 0.1 12 99
- 0.260214 0 1 tcp 1040 ------- 1 0.0 1.0 10 81
- 0.260214 1 2 tcp 1040 ------- 1 1.1 2.0 10 83
- 0.260214 2 3 tcp 1040 ------- 1 2.1 3.0 10 85
- 0.260214 3 4 tcp 1040 ------- 1 3.1 4.0 10 87
- 0.260214 4 0 tcp 1040 ------- 1 4.1 0.1 10 89
r 0.260214 1 0 ack 40 ------- 1 1.0 0.0 6 65
+ 0.260214 0 1 tcp 1040 ------- 1 0.0 1.0 13 100
+ 0.260214 0 1 tcp 1040 ------- 1 0.0 1.0 14 101
r 0.260214 2 1 ack 40 ------- 1 2.0 1.1 6 66
+ 0.260214 1 2 tcp 1040 ------- 1 1.1 2.0 13 102
+ 0.260214 1 2 tcp 1040 ------- 1 1.1 2.0 14 103
r 0.260214 3 2 ack 40 ------- 1 3.0 2.1 6 67
+ 0.260214 2 3 tcp 1040 ------- 1 2.1 3.0 13 104
+ 0.260214 2 3 tcp 1040 ------- 1 2.1 3.0 14 105
r 0.260214 4 3 ack 40 ------- 1 4.0 3.1 6 68
+ 0.260214 3 4 tcp 1040 ------- 1 3.1 4.0 13 106
+ 0.260214 3 4 tcp 1040 ------- 1 3.1 4.0 14 107
r 0.260214 0 4 ack 40 ------- 1 0.1 4.1 6 69
+ 0.260214 4 0 tcp 1040 ------- 1 4.1 0.1 13 108
+ 0.260214 4 0 tcp 1040 ------- 1 4.1 0.1 14 109
- 0.260256 0 1 tcp 1040 ------- 1 0.0 1.0 11 90
- 0.260256 1 2 tcp 1040 ------- 1 1.1 2.0 11 92
- 0.260256 2 3 tcp 1040 ------- 1 2.1 3.0 11 94
- 0.260256 3 4 tcp 1040 ------- 1 3.1 4.0 11 96
- 0.260256 4 0 tcp 1040 ------- 1 4.1 0.1 11 98
- 0.260298 0 1 tcp 1040 ------- 1 0.0 1.0 12 91
- 0.260298 1 2 tcp 1040 ------- 1 1.1 2.0 12 93
- 0.260298 2 3 tcp 1040 ------- 1 2.1 3.0 12 95
- 0.260298 3 4 tcp 1040 ------- 1 3.1 4.0 12 97
- 0.260298 4 0 tcp 1040 ------- 1 4.1 0.1 12 99
- 0.260339 0 1 tcp 1040 ------- 1 0.0 1.0 13 100
- 0.260339 1 2 tcp 1040 ------- 1 1.1 2.0 13 102
- 0.260339 2 3 tcp 1040 ------- 1 2.1 3.0 13 104
- 0.260339 3 4 tcp 1040 ------- 1 3.1 4.0 13 106
- 0.260339 4 0 tcp 1040 ------- 1 4.1 0.1 13 108
- 0.260381 0 1 tcp 1040 ------- 1 0.0 1.0 14 101
- 0.260381 1 2 tcp 1040 ------- 1 1.1 2.0 14 103
- 0.260381 2 3 tcp 1040 ------- 1 2.1 3.0 14 105
- 0.260381 3 4 tcp 1040 ------- 1 3.1 4.0 14 107
- 0.260381 4 0 tcp 1040 ------- 1 4.1 0.1 14 109
r 0.270131 0 1 tcp 1040 ------- 1 0.0 1.0 7 70
+ 0.270131 1 0 ack 40 ------- 1 1.0 0.0 7 110
- 0.270131 1 0 ack 40 ------- 1 1.0 0.0 7 110
r 0.270131 1 2 tcp 1040 ------- 1 1.1 2.0 7 72
+ 0.270131 2 1 ack 40 ------- 1 2.0 1.1 7 111
- 0.270131 2 1 ack 40 ------- 1 2.0 1.1 7 111
r 0.270131 2 3 tcp 1040 ------- 1 2.1 3.0 7 74
+ 0.270131 3 2 ack 40 ------- 1 3.0 2.1 7 112
- 0.270131 3 2 ack 40 ------- 1 3.0 2.1 7 112
r 0.270131 3 4 tcp 1040 ------- 1 3.1 4.0 7 76
+ 0.270131 4 3 ack 40 ------- 1 4.0 3.1 7 113
- 0.270131 4 3 ack 40 ------- 1 4.0 3.1 7 113
r 0.270131 4 0 tcp 1040 ------- 1 4.1 0.1 7 78
+ 0.270131 0 4 ack 40 ------- 1 0.1 4.1 7 114
- 0.270131 0 4 ack 40 ------- 1 0.1 4.1 7 114
r 0.270173 0 1 tcp 1040 ------- 1 0.0 1.0 8 71
+ 0.270173 1 0 ack 40 ------- 1 1.0 0.0 8 115
- 0.270173 1 0 ack 40 ------- 1 1.0 0.0 8 115
r 0.270173 1 2 tcp 1040 ------- 1 1.1 2.0 8 73
+ 0.270173 2 1 ack 40 ------- 1 2.0 1.1 8 116
- 0.270173 2 1 ack 40 ------- 1 2.0 1.1 8 116
r 0.270173 2 3 tcp 1040 ------- 1 2.1 3.0 8 75
+ 0.270173 3 2 ack 40 ------- 1 3.0 2.1 8 117
- 0.270173 3 2 ack 40 ------- 1 3.0 2.1 8 117
r 0.270173 3 4 tcp 1040 ------- 1 3.1 4.0 8 77
+ 0.270173 4 3 ack 40 ------- 1 4.0 3.1 8 118
- 0.270173 4 3 ack 40 ------- 1 4.0 3.1 8 118
r 0.270173 4 0 tcp 1040 ------- 1 4.1 0.1 8 79
+ 0.270173 0 4 ack 40 ------- 1 0.1 4.1 8 119
- 0.270173 0 4 ack 40 ------- 1 0.1 4.1 8 119
r 0.270214 0 1 tcp 1040 ------- 1 0.0 1.0 9 80
+ 0.270214 1 0 ack 40 ------- 1 1.0 0.0 9 120
- 0.270214 1 0 ack 40 ------- 1 1.0 0.0 9 120
r 0.270214 1 2 tcp 1040 ------- 1 1.1 2.0 9 82
+ 0.270214 2 1 ack 40 ------- 1 2.0 1.1 9 121
- 0.270214 2 1 ack 40 ------- 1 2.0 1.1 9 121
r 0.270214 2 3 tcp 1040 ------- 1 2.1 3.0 9 84
+ 0.270214 3 2 ack 40 ------- 1 3.0 2.1 9 122
- 0.270214 3 2 ack 40 ------- 1 3.0 2.1 9 122
r 0.270214 3 4 tcp 1040 ------- 1 3.1 4.0 9 86
+ 0.270214 4 3 ack 40 ------- 1 4.0 3.1 9 123
- 0.270214 4 3 ack 40 ------- 1 4.0 3.1 9 123
r 0.270214 4 0 tcp 1040 ------- 1 4.1 0.1 9 88
+ 0.270214 0 4 ack 40 ------- 1 0.1 4.1 9 124
- 0.270214 0 4 ack 40 ------- 1 0.1 4.1 9 124
r 0.270256 0 1 tcp 1040 ------- 1 0.0 1.0 10 81
+ 0.270256 1 0 ack 40 ------- 1 1.0 0.0 10 125
- 0.270256 1 0 ack 40 ------- 1 1.0 0.0 10 125
r 0.270256 1 2 tcp 1040 ------- 1 1.1 2.0 10 83
+ 0.270256 2 1 ack 40 ------- 1 2.0 1.1 10 126
- 0.270256 2 1 ack 40 ------- 1 2.0 1.1 10 126
r 0.270256 2 3 tcp 1040 ------- 1 2.1 3.0 10 85
+ 0.270256 3 2 ack 40 ------- 1 3.0 2.1 10 127
- 0.270256 3 2 ack 40 ------- 1 3.0 2.1 10 127
r 0.270256 3 4 tcp 1040 ------- 1 3.1 4.0 10 87
+ 0.270256 4 3 ack 40 ------- 1 4.0 3.1 10 128
- 0.270256 4 3 ack 40 ------- 1 4.0 3.1 10 128
r 0.270256 4 0 tcp 1040 ------- 1 4.1 0.1 10 89
+ 0.270256 0 4 ack 40 ------- 1 0.1 4.1 10 129
- 0.270256 0 4 ack 40 ------- 1 0.1 4.1 10 129
r 0.270298 0 1 tcp 1040 ------- 1 0.0 1.0 11 90
+ 0.270298 1 0 ack 40 ------- 1 1.0 0.0 11 130
- 0.270298 1 0 ack 40 ------- 1 1.0 0.0 11 130
r 0.270298 1 2 tcp 1040 ------- 1 1.1 2.0 11 92
+ 0.270298 2 1 ack 40 ------- 1 2.0 1.1 11 131
- 0.270298 2 1 ack 40 ------- 1 2.0 1.1 11 131
r 0.270298 2 3 tcp 1040 ------- 1 2.1 3.0 11 94
+ 0.270298 3 2 ack 40 ------- 1 3.0 2.1 11 132
- 0.270298 3 2 ack 40 ------- 1 3.0 2.1 11 132
r 0.270298 3 4 tcp 1040 ------- 1 3.1 4.0 11 96
+ 0.270298 4 3 ack 40 ------- 1 4.0 3.1 11 133
- 0.270298 4 3 ack 40 ------- 1 4.0 3.1 11 133
r 0.270298 4 0 tcp 1040 ------- 1 4.1 0.1 11 98
+ 0.270298 0 4 ack 40 ------- 1 0.1 4.1 11 134
- 0.270298 0 4 ack 40 ------- 1 0.1 4.1 11 134
r 0.270339 0 1 tcp 1040 ------- 1 0.0 1.0 12 91
+ 0.270339 1 0 ack 40 ------- 1 1.0 0.0 12 135
- 0.270339 1 0 ack 40 ------- 1 1.0 0.0 12 135
r 0.270339 1 2 tcp 1040 ------- 1 1.1 2.0 12 93
+ 0.270339 2 1 ack 40 ------- 1 2.0 1.1 12 136
- 0.270339 2 1 ack 40 ------- 1 2.0 1.1 12 136
r 0.270339 2 3 tcp 1040 ------- 1 2.1 3.0 12 95
+ 0.270339 3 2 ack 40 ------- 1 3.0 2.1 12 137
- 0.270339 3 2 ack 40 ------- 1 3.0 2.1 12 137
r 0.270339 3 4 tcp 1040 ------- 1 3.1 4.0 12 97
+ 0.270339 4 3 ack 40 ------- 1 4.0 3.1 12 138
- 0.270339 4 3 ack 40 ------- 1 4.0 3.1 12 138
r 0.270339 4 0 tcp 1040 ------- 1 4.1 0.1 12 99
+ 0.270339 0 4 ack 40 ------- 1 0.1 4.1 12 139
- 0.270339 0 4 ack 40 ------- 1 0.1 4.1 12 139
r 0.270381 0 1 tcp 1040 ------- 1 0.0 1.0 13 100
+ 0.270381 1 0 ack 40 ------- 1 1.0 0.0 13 140
- 0.270381 1 0 ack 40 ------- 1 1.0 0.0 13 140
r 0.270381 1 2 tcp 1040 ------- 1 1.1 2.0 13 102
+ 0.270381 2 1 ack 40 ------- 1 2.0 1.1 13 141
- 0.270381 2 1 ack 40 ------- 1 2.0 1.1 13 141
r 0.270381 2 3 tcp 1040 ------- 1 2.1 3.0 13 104
+ 0.270381 3 2 ack 40 ------- 1 3.0 2.1 13 142
- 0.270381 3 2 ack 40 ------- 1 3.0 2.1 13 142
r 0.270381 3 4 tcp 1040 ------- 1 3.1 4.0 13 106
+ 0.270381 4 3 ack 40 ------- 1 4.0 3.1 13 143
- 0.270381 4 3 ack 40 ------- 1 4.0 3.1 13 143
r 0.270381 4 0 tcp 1040 ------- 1 4.1 0.1 13 108
+ 0.270381 0 4 ack 40 ------- 1 0.1 4.1 13 144
- 0.270381 0 4 ack 40 ------- 1 0.1 4.1 13 144
r 0.270422 0 1 tcp 1040 ------- 1 0.0 1.0 14 101
+ 0.270422 1 0 ack 40 ------- 1 1.0 0.0 14 145
- 0.270422 1 0 ack 40 ------- 1 1.0 0.0 14 145
r 0.270422 1 2 tcp 1040 ------- 1 1.1 2.0 14 103
+ 0.270422 2 1 ack 40 ------- 1 2.0 1.1 14 146
- 0.270422 2 1 ack 40 ------- 1 2.0 1.1 14 146
r 0.270422 2 3 tcp 1040 ------- 1 2.1 3.0 14 105
+ 0.270422 3 2 ack 40 ------- 1 3.0 2.1 14 147
- 0.270422 3 2 ack 40 ------- 1 3.0 2.1 14 147
r 0.270422 3 4 tcp 1040 ------- 1 3.1 4.0 14 107
+ 0.270422 4 3 ack 40 ------- 1 4.0 3.1 14 148
- 0.270422 4 3 ack 40 ------- 1 4.0 3.1 14 148
r 0.270422 4 0 tcp 1040 ------- 1 4.1 0.1 14 109
+ 0.270422 0 4 ack 40 ------- 1 0.1 4.1 14 149
- 0.270422 0 4 ack 40 ------- 1 0.1 4.1 14 149
r 0.280133 1 0 ack 40 ------- 1 1.0 0.0 7 110
+ 0.280133 0 1 tcp 1040 ------- 1 0.0 1.0 15 150
- 0.280133 0 1 tcp 1040 ------- 1 0.0 1.0 15 150
+ 0.280133 0 1 tcp 1040 ------- 1 0.0 1.0 16 151
r 0.280133 2 1 ack 40 ------- 1 2.0 1.1 7 111
+ 0.280133 1 2 tcp 1040 ------- 1 1.1 2.0 15 152
- 0.280133 1 2 tcp 1040 ------- 1 1.1 2.0 15 152
+ 0.280133 1 2 tcp 1040 ------- 1 1.1 2.0 16 153
r 0.280133 3 2 ack 40 ------- 1 3.0 2.1 7 112
+ 0.280133 2 3 tcp 1040 ------- 1 2.1 3.0 15 154
- 0.280133 2 3 tcp 1040 ------- 1 2.1 3.0 15 154
+ 0.280133 2 3 tcp 1040 ------- 1 2.1 3.0 16 155
r 0.280133 4 3 ack 40 ------- 1 4.0 3.1 7 113
+ 0.280133 3 4 tcp 1040 ------- 1 3.1 4.0 15 156
- 0.280133 3 4 tcp 1040 ------- 1 3.1 4.0 15 156
+ 0.280133 3 4 tcp 1040 ------- 1 3.1 4.0 16 157
r 0.280133 0 4 ack 40 ------- 1 0.1 4.1 7 114
+ 0.280133 4 0 tcp 1040 ------- 1 4.1 0.1 15 158
- 0.280133 4 0 tcp 1040 ------- 1 4.1 0.1 15 158
+ 0.280133 4 0 tcp 1040 ------- 1 4.1 0.1 16 159
r 0.280174 1 0 ack 40 ------- 1 1.0 0.0 8 115
+ 0.280174 0 1 tcp 1040 ------- 1 0.0 1.0 17 160
+ 0.280174 0 1 tcp 1040 ------- 1 0.0 1.0 18 161
r 0.280174 2 1 ack 40 ------- 1 2.0 1.1 8 116
+ 0.280174 1 2 tcp 1040 ------- 1 1.1 2.0 17 162
+ 0.280174 1 2 tcp 1040 ------- 1 1.1 2.0 18 163
r 0.280174 3 2 ack 40 ------- 1 3.0 2.1 8 117
+ 0.280174 2 3 tcp 1040 ------- 1 2.1 3.0 17 164
+ 0.280174 2 3 tcp 1040 ------- 1 2.1 3.0 18 165
r 0.280174 4 3 ack 40 ------- 1 4.0 3.1 8 118
+ 0.280174 3 4 tcp 1040 ------- 1 3.1 4.0 17 166
+ 0.280174 3 4 tcp 1040 ------- 1 3.1 4.0 18 167
r 0.280174 0 4 ack 40 ------- 1 0.1 4.1 8 119
+ 0.280174 4 0 tcp 1040 ------- 1 4.1 0.1 17 168
+ 0.280174 4 0 tcp 1040 ------- 1 4.1 0.1 18 169
- 0.280174 0 1 tcp 1040 ------- 1 0.0 1.0 16 151
- 0.280174 1 2 tcp 1040 ------- 1 1.1 2.0 16 153
- 0.280174 2 3 tcp 1040 ------- 1 2.1 3.0 16 155
- 0.280174 3 4 tcp 1040 ------- 1 3.1 4.0 16 157
- 0.280174 4 0 tcp 1040 ------- 1 4.1 0.1 16 159
r 0.280216 1 0 ack 40 ------- 1 1.0 0.0 9 120
+ 0.280216 0 1 tcp 1040 ------- 1 0.0 1.0 19 170
+ 0.280216 0 1 tcp 1040 ------- 1 0.0 1.0 20 171
r 0.280216 2 1 ack 40 ------- 1 2.0 1.1 9 121
+ 0.280216 1 2 tcp 1040 ------- 1 1.1 2.0 19 172
+ 0.280216 1 2 tcp 1040 ------- 1 1.1 2.0 20 173
r 0.280216 3 2 ack 40 ------- 1 3.0 2.1 9 122
+ 0.280216 2 3 tcp 1040 ------- 1 2.1 3.0 19 174
+ 0.280216 2 3 tcp 1040 ------- 1 2.1 3.0 20 175
r 0.280216 4 3 ack 40 ------- 1 4.0 3.1 9 123
+ 0.280216 3 4 tcp 1040 ------- 1 3.1 4.0 19 176
+ 0.280216 3 4 tcp 1040 ------- 1 3.1 4.0 20 177
r 0.280216 0 4 ack 40 ------- 1 0.1 4.1 9 124
+ 0.280216 4 0 tcp 1040 ------- 1 4.1 0.1 19 178
+ 0.280216 4 0 tcp 1040 ------- 1 4.1 0.1 20 179
- 0.280216 0 1 tcp 1040 ------- 1 0.0 1.0 17 160
- 0.280216 1 2 tcp 1040 ------- 1 1.1 2.0 17 162
- 0.280216 2 3 tcp 1040 ------- 1 2.1 3.0 17 164
- 0.280216 3 4 tcp 1040 ------- 1 3.1 4.0 17 166
- 0.280216 4 0 tcp 1040 ------- 1 4.1 0.1 17 168
r 0.280258 1 0 ack 40 ------- 1 1.0 0.0 10 125
+ 0.280258 0 1 tcp 1040 ------- 1 0.0 1.0 21 180
+ 0.280258 0 1 tcp 1040 ------- 1 0.0 1.0 22 181
d 0.280258 0 1 tcp 1040 ------- 1 0.0 1.0 22 181
r 0.280258 2 1 ack 40 ------- 1 2.0 1.1 10 126
+ 0.280258 1 2 tcp 1040 ------- 1 1.1 2.0 21 182
+ 0.280258 1 2 tcp 1040 ------- 1 1.1 2.0 22 183
d 0.280258 1 2 tcp 1040 ------- 1 1.1 2.0 22 183
r 0.280258 3 2 ack 40 ------- 1 3.0 2.1 10 127
+ 0.280258 2 3 tcp 1040 ------- 1 2.1 3.0 21 184
+ 0.280258 2 3 tcp 1040 ------- 1 2.1 3.0 22 185
d 0.280258 2 3 tcp 1040 ------- 1 2.1 3.0 22 185
r 0.280258 4 3 ack 40 ------- 1 4.0 3.1 10 128
+ 0.280258 3 4 tcp 1040 ------- 1 3.1 4.0 21 186
+ 0.280258 3 4 tcp 1040 ------- 1 3.1 4.0 22 187
d 0.280258 3 4 tcp 1040 ------- 1 3.1 4.0 22 187
r 0.280258 0 4 ack 40 ------- 1 0.1 4.1 10 129
+ 0.280258 4 0 tcp 1040 ------- 1 4.1 0.1 21 188
+ 0.280258 4 0 tcp 1040 ------- 1 4.1 0.1 22 189
d 0.280258 4 0 tcp 1040 ------- 1 4.1 0.1 22 189
- 0.280258 0 1 tcp 1040 ------- 1 0.0 1.0 18 161
- 0.280258 1 2 tcp 1040 ------- 1 1.1 2.0 18 163
- 0.280258 2 3 tcp 1040 ------- 1 2.1 3.0 18 165
- 0.280258 3 4 tcp 1040 ------- 1 3.1 4.0 18 167
- 0.280258 4 0 tcp 1040 ------- 1 4.1 0.1 18 169
r 0.280299 1 0 ack 40 ------- 1 1.0 0.0 11 130
+ 0.280299 0 1 tcp 1040 ------- 1 0.0 1.0 23 190
+ 0.280299 0 1 tcp 1040 ------- 1 0.0 1.0 24 191
d 0.280299 0 1 tcp 1040 ------- 1 0.0 1.0 24 191
r 0.280299 2 1 ack 40 ------- 1 2.0 1.1 11 131
+ 0.280299 1 2 tcp 1040 ------- 1 1.1 2.0 23 192
+ 0.280299 1 2 tcp 1040 ------- 1 1.1 2.0 24 193
d 0.280299 1 2 tcp 1040 ------- 1 1.1 2.0 24 193
r 0.280299 3 2 ack 40 ------- 1 3.0 2.1 11 132
+ 0.280299 2 3 tcp 1040 ------- 1 2.1 3.0 23 194
+ 0.280299 2 3 tcp 1040 ------- 1 2.1 3.0 24 195
d 0.280299 2 3 tcp 1040 ------- 1 2.1 3.0 24 195
r 0.280299 4 3 ack 40 ------- 1 4.0 3.1 11 133
+ 0.280299 3 4 tcp 1040 ------- 1 3.1 4.0 23 196
+ 0.280299 3 4 tcp 1040 ------- 1 3.1 4.0 24 197
d 0.280299 3 4 tcp 1040 ------- 1 3.1 4.0 24 197
r 0.280299 0 4 ack 40 ------- 1 0.1 4.1 11 134
+ 0.280299 4 0 tcp 1040 ------- 1 4.1 0.1 23 198
+ 0.280299 4 0 tcp 1040 ------- 1 4.1 0.1 24 199
d 0.280299 4 0 tcp 1040 ------- 1 4.1 0.1 24 199
- 0.280299 0 1 tcp 1040 ------- 1 0.0 1.0 19 170
- 0.280299 1 2 tcp 1040 ------- 1 1.1 2.0 19 172
- 0.280299 2 3 tcp 1040 ------- 1 2.1 3.0 19 174
- 0.280299 3 4 tcp 1040 ------- 1 3.1 4.0 19 176
- 0.280299 4 0 tcp 1040 ------- 1 4.1 0.1 19 178
r 0.280341 1 0 ack 40 ------- 1 1.0 0.0 12 135
+ 0.280341 0 1 tcp 1040 ------- 1 0.0 1.0 25 200
+ 0.280341 0 1 tcp 1040 ------- 1 0.0 1.0 26 201
d 0.280341 0 1 tcp 1040 ------- 1 0.0 1.0 26 201
r 0.280341 2 1 ack 40 ------- 1 2.0 1.1 12 136
+ 0.280341 1 2 tcp 1040 ------- 1 1.1 2.0 25 202
+ 0.280341 1 2 tcp 1040 ------- 1 1.1 2.0 26 203
d 0.280341 1 2 tcp 1040 ------- 1 1.1 2.0 26 203
r 0.280341 3 2 ack 40 ------- 1 3.0 2.1 12 137
+ 0.280341 2 3 tcp 1040 ------- 1 2.1 3.0 25 204
+ 0.280341 2 3 tcp 1040 ------- 1 2.1 3.0 26 205
d 0.280341 2 3 tcp 1040 ------- 1 2.1 3.0 26 205
r 0.280341 4 3 ack 40 ------- 1 4.0 3.1 12 138
+ 0.280341 3 4 tcp 1040 ------- 1 3.1 4.0 25 206
+ 0.280341 3 4 tcp 1040 ------- 1 3.1 4.0 26 207
d 0.280341 3 4 tcp 1040 ------- 1 3.1 4.0 26 207
r 0.280341 0 4 ack 40 ------- 1 0.1 4.1 12 139
+ 0.280341 4 0 tcp 1040 ------- 1 4.1 0.1 25 208
+ 0.280341 4 0 tcp 1040 ------- 1 4.1 0.1 26 209
d 0.280341 4 0 tcp 1040 ------- 1 4.1 0.1 26 209
- 0.280341 0 1 tcp 1040 ------- 1 0.0 1.0 20 171
- 0.280341 1 2 tcp 1040 ------- 1 1.1 2.0 20 173
- 0.280341 2 3 tcp 1040 ------- 1 2.1 3.0 20 175
- 0.280341 3 4 tcp 1040 ------- 1 3.1 4.0 20 177
- 0.280341 4 0 tcp 1040 ------- 1 4.1 0.1 20 179
r 0.280382 1 0 ack 40 ------- 1 1.0 0.0 13 140
+ 0.280382 0 1 tcp 1040 ------- 1 0.0 1.0 27 210
+ 0.280382 0 1 tcp 1040 ------- 1 0.0 1.0 28 211
d 0.280382 0 1 tcp 1040 ------- 1 0.0 1.0 28 211
r 0.280382 2 1 ack 40 ------- 1 2.0 1.1 13 141
+ 0.280382 1 2 tcp 1040 ------- 1 1.1 2.0 27 212
+ 0.280382 1 2 tcp 1040 ------- 1 1.1 2.0 28 213
d 0.280382 1 2 tcp 1040 ------- 1 1.1 2.0 28 213
r 0.280382 3 2 ack 40 ------- 1 3.0 2.1 13 142
+ 0.280382 2 3 tcp 1040 ------- 1 2.1 3.0 27 214
+ 0.280382 2 3 tcp 1040 ------- 1 2.1 3.0 28 215
d 0.280382 2 3 tcp 1040 ------- 1 2.1 3.0 28 215
r 0.280382 4 3 ack 40 ------- 1 4.0 3.1 13 143
+ 0.280382 3 4 tcp 1040 ------- 1 3.1 4.0 27 216
+ 0.280382 3 4 tcp 1040 ------- 1 3.1 4.0 28 217
d 0.280382 3 4 tcp 1040 ------- 1 3.1 4.0 28 217
r 0.280382 0 4 ack 40 ------- 1 0.1 4.1 13 144
+ 0.280382 4 0 tcp 1040 ------- 1 4.1 0.1 27 218
+ 0.280382 4 0 tcp 1040 ------- 1 4.1 0.1 28 219
d 0.280382 4 0 tcp 1040 ------- 1 4.1 0.1 28 219
- 0.280382 0 1 tcp 1040 ------- 1 0.0 1.0 21 180
- 0.280382 1 2 tcp 1040 ------- 1 1.1 2.0 21 182
- 0.280382 2 3 tcp 1040 ------- 1 2.1 3.0 21 184
- 0.280382 3 4 tcp 1040 ------- 1 3.1 4.0 21 186
- 0.280382 4 0 tcp 1040 ------- 1 4.1 0.1 21 188
r 0.280424 1 0 ack 40 ------- 1 1.0 0.0 14 145
+ 0.280424 0 1 tcp 1040 ------- 1 0.0 1.0 29 220
+ 0.280424 0 1 tcp 1040 ------- 1 0.0 1.0 30 221
d 0.280424 0 1 tcp 1040 ------- 1 0.0 1.0 30 221
r 0.280424 2 1 ack 40 ------- 1 2.0 1.1 14 146
+ 0.280424 1 2 tcp 1040 ------- 1 1.1 2.0 29 222
+ 0.280424 1 2 tcp 1040 ------- 1 1.1 2.0 30 223
d 0.280424 1 2 tcp 1040 ------- 1 1.1 2.0 30 223
r 0.280424 3 2 ack 40 ------- 1 3.0 2.1 14 147
+ 0.280424 2 3 tcp 1040 ------- 1 2.1 3.0 29 224
+ 0.280424 2 3 tcp 1040 ------- 1 2.1 3.0 30 225
d 0.280424 2 3 tcp 1040 ------- 1 2.1 3.0 30 225
r 0.280424 4 3 ack 40 ------- 1 4.0 3.1 14 148
+ 0.280424 3 4 tcp 1040 ------- 1 3.1 4.0 29 226
+ 0.280424 3 4 tcp 1040 ------- 1 3.1 4.0 30 227
d 0.280424 3 4 tcp 1040 ------- 1 3.1 4.0 30 227
r 0.280424 0 4 ack 40 ------- 1 0.1 4.1 14 149
+ 0.280424 4 0 tcp 1040 ------- 1 4.1 0.1 29 228
+ 0.280424 4 0 tcp 1040 ------- 1 4.1 0.1 30 229
d 0.280424 4 0 tcp 1040 ------- 1 4.1 0.1 30 229
- 0.280424 0 1 tcp 1040 ------- 1 0.0 1.0 23 190
- 0.280424 1 2 tcp 1040 ------- 1 1.1 2.0 23 192
- 0.280424 2 3 tcp 1040 ------- 1 2.1 3.0 23 194
- 0.280424 3 4 tcp 1040 ------- 1 3.1 4.0 23 196
- 0.280424 4 0 tcp 1040 ------- 1 4.1 0.1 23 198
- 0.280466 0 1 tcp 1040 ------- 1 0.0 1.0 25 200
- 0.280466 1 2 tcp 1040 ------- 1 1.1 2.0 25 202
- 0.280466 2 3 tcp 1040 ------- 1 2.1 3.0 25 204
- 0.280466 3 4 tcp 1040 ------- 1 3.1 4.0 25 206
- 0.280466 4 0 tcp 1040 ------- 1 4.1 0.1 25 208
- 0.280507 0 1 tcp 1040 ------- 1 0.0 1.0 27 210
- 0.280507 1 2 tcp 1040 ------- 1 1.1 2.0 27 212
- 0.280507 2 3 tcp 1040 ------- 1 2.1 3.0 27 214
- 0.280507 3 4 tcp 1040 ------- 1 3.1 4.0 27 216
- 0.280507 4 0 tcp 1040 ------- 1 4.1 0.1 27 218
- 0.280549 0 1 tcp 1040 ------- 1 0.0 1.0 29 220
- 0.280549 1 2 tcp 1040 ------- 1 1.1 2.0 29 222
- 0.280549 2 3 tcp 1040 ------- 1 2.1 3.0 29 224
- 0.280549 3 4 tcp 1040 ------- 1 3.1 4.0 29 226
- 0.280549 4 0 tcp 1040 ------- 1 4.1 0.1 29 228
r 0.290174 0 1 tcp 1040 ------- 1 0.0 1.0 15 150
+ 0.290174 1 0 ack 40 ------- 1 1.0 0.0 15 230
- 0.290174 1 0 ack 40 ------- 1 1.0 0.0 15 230
r 0.290174 1 2 tcp 1040 ------- 1 1.1 2.0 15 152
+ 0.290174 2 1 ack 40 ------- 1 2.0 1.1 15 231
- 0.290174 2 1 ack 40 ------- 1 2.0 1.1 15 231
r 0.290174 2 3 tcp 1040 ------- 1 2.1 3.0 15 154
+ 0.290174 3 2 ack 40 ------- 1 3.0 2.1 15 232
- 0.290174 3 2 ack 40 ------- 1 3.0 2.1 15 232
r 0.290174 3 4 tcp 1040 ------- 1 3.1 4.0 15 156
+ 0.290174 4 3 ack 40 ------- 1 4.0 3.1 15 233
- 0.290174 4 3 ack 40 ------- 1 4.0 3.1 15 233
r 0.290174 4 0 tcp 1040 ------- 1 4.1 0.1 15 158
+ 0.290174 0 4 ack 40 ------- 1 0.1 4.1 15 234
- 0.290174 0 4 ack 40 ------- 1 0.1 4.1 15 234
r 0.290216 0 1 tcp 1040 ------- 1 0.0 1.0 16 151
+ 0.290216 1 0 ack 40 ------- 1 1.0 0.0 16 235
- 0.290216 1 0 ack 40 ------- 1 1.0 0.0 16 235
r 0.290216 1 2 tcp 1040 ------- 1 1.1 2.0 16 153
+ 0.290216 2 1 ack 40 ------- 1 2.0 1.1 16 236
- 0.290216 2 1 ack 40 ------- 1 2.0 1.1 16 236
r 0.290216 2 3 tcp 1040 ------- 1 2.1 3.0 16 155
+ 0.290216 3 2 ack 40 ------- 1 3.0 2.1 16 237
- 0.290216 3 2 ack 40 ------- 1 3.0 2.1 16 237
r 0.290216 3 4 tcp 1040 ------- 1 3.1 4.0 16 157
+ 0.290216 4 3 ack 40 ------- 1 4.0 3.1 16 238
- 0.290216 4 3 ack 40 ------- 1 4.0 3.1 16 238