+ 0.2 0 1 tcp 40 ------- 1 0.0 1.0 0 0
- 0.2 0 1 tcp 40 ------- 1 0.0 1.0 0 0
+ 0.2 1 2 tcp 40 ------- 1 1.1 2.0 0 1
- 0.2 1 2 tcp 40 ------- 1 1.1 2.0 0 1
+ 0.2 2 3 tcp 40 ------- 1 2.1 3.0 0 2
- 0.2 2 3 tcp 40 ------- 1 2.1 3.0 0 2
+ 0.2 3 4 tcp 40 ------- 1 3.1 4.0 0 3
- 0.2 3 4 tcp 40 ------- 1 3.1 4.0 0 3
+ 0.2 4 0 tcp 40 ------- 1 4.1 0.1 0 4
- 0.2 4 0 tcp 40 ------- 1 4.1 0.1 0 4
r 0.210032 0 1 tcp 40 ------- 1 0.0 1.0 0 0
+ 0.210032 1 0 ack 40 ------- 1 1.0 0.0 0 5
- 0.210032 1 0 ack 40 ------- 1 1.0 0.0 0 5
r 0.210032 1 2 tcp 40 ------- 1 1.1 2.0 0 1
+ 0.210032 2 1 ack 40 ------- 1 2.0 1.1 0 6
- 0.210032 2 1 ack 40 ------- 1 2.0 1.1 0 6
r 0.210032 2 3 tcp 40 ------- 1 2.1 3.0 0 2
+ 0.210032 3 2 ack 40 ------- 1 3.0 2.1 0 7
- 0.210032 3 2 ack 40 ------- 1 3.0 2.1 0 7
r 0.210032 3 4 tcp 40 ------- 1 3.1 4.0 0 3
+ 0.210032 4 3 ack 40 ------- 1 4.0 3.1 0 8
- 0.210032 4 3 ack 40 ------- 1 4.0 3.1 0 8
r 0.210032 4 0 tcp 40 ------- 1 4.1 0.1 0 4
+ 0.210032 0 4 ack 40 ------- 1 0.1 4.1 0 9
- 0.210032 0 4 ack 40 ------- 1 0.1 4.1 0 9
r 0.220064 1 0 ack 40 ------- 1 1.0 0.0 0 5
+ 0.220064 0 1 tcp 1040 ------- 1 0.0 1.0 1 10
- 0.220064 0 1 tcp 1040 ------- 1 0.0 1.0 1 10
+ 0.220064 0 1 tcp 1040 ------- 1 0.0 1.0 2 11
r 0.220064 2 1 ack 40 ------- 1 2.0 1.1 0 6
+ 0.220064 1 2 tcp 1040 ------- 1 1.1 2.0 1 12
- 0.220064 1 2 tcp 1040 ------- 1 1.1 2.0 1 12
+ 0.220064 1 2 tcp 1040 ------- 1 1.1 2.0 2 13
r 0.220064 3 2 ack 40 ------- 1 3.0 2.1 0 7
+ 0.220064 2 3 tcp 1040 ------- 1 2.1 3.0 1 14
- 0.220064 2 3 tcp 1040 ------- 1 2.1 3.0 1 14
+ 0.220064 2 3 tcp 1040 ------- 1 2.1 3.0 2 15
r 0.220064 4 3 ack 40 ------- 1 4.0 3.1 0 8
+ 0.220064 3 4 tcp 1040 ------- 1 3.1 4.0 1 16
- 0.220064 3 4 tcp 1040 ------- 1 3.1 4.0 1 16
+ 0.220064 3 4 tcp 1040 ------- 1 3.1 4.0 2 17
r 0.220064 0 4 ack 40 ------- 1 0.1 4.1 0 9
+ 0.220064 4 0 tcp 1040 ------- 1 4.1 0.1 1 18
- 0.220064 4 0 tcp 1040 ------- 1 4.1 0.1 1 18
+ 0.220064 4 0 tcp 1040 ------- 1 4.1 0.1 2 19
- 0.220896 0 1 tcp 1040 ------- 1 0.0 1.0 2 11
- 0.220896 1 2 tcp 1040 ------- 1 1.1 2.0 2 13
- 0.220896 2 3 tcp 1040 ------- 1 2.1 3.0 2 15
- 0.220896 3 4 tcp 1040 ------- 1 3.1 4.0 2 17
- 0.220896 4 0 tcp 1040 ------- 1 4.1 0.1 2 19
r 0.230896 0 1 tcp 1040 ------- 1 0.0 1.0 1 10
+ 0.230896 1 0 ack 40 ------- 1 1.0 0.0 1 20
- 0.230896 1 0 ack 40 ------- 1 1.0 0.0 1 20
r 0.230896 1 2 tcp 1040 ------- 1 1.1 2.0 1 12
+ 0.230896 2 1 ack 40 ------- 1 2.0 1.1 1 21
- 0.230896 2 1 ack 40 ------- 1 2.0 1.1 1 21
r 0.230896 2 3 tcp 1040 ------- 1 2.1 3.0 1 14
+ 0.230896 3 2 ack 40 ------- 1 3.0 2.1 1 22
- 0.230896 3 2 ack 40 ------- 1 3.0 2.1 1 22
r 0.230896 3 4 tcp 1040 ------- 1 3.1 4.0 1 16
+ 0.230896 4 3 ack 40 ------- 1 4.0 3.1 1 23
- 0.230896 4 3 ack 40 ------- 1 4.0 3.1 1 23
r 0.230896 4 0 tcp 1040 ------- 1 4.1 0.1 1 18
+ 0.230896 0 4 ack 40 ------- 1 0.1 4.1 1 24
- 0.230896 0 4 ack 40 ------- 1 0.1 4.1 1 24
r 0.231728 0 1 tcp 1040 ------- 1 0.0 1.0 2 11
+ 0.231728 1 0 ack 40 ------- 1 1.0 0.0 2 25
- 0.231728 1 0 ack 40 ------- 1 1.0 0.0 2 25
r 0.231728 1 2 tcp 1040 ------- 1 1.1 2.0 2 13
+ 0.231728 2 1 ack 40 ------- 1 2.0 1.1 2 26
- 0.231728 2 1 ack 40 ------- 1 2.0 1.1 2 26
r 0.231728 2 3 tcp 1040 ------- 1 2.1 3.0 2 15
+ 0.231728 3 2 ack 40 ------- 1 3.0 2.1 2 27
- 0.231728 3 2 ack 40 ------- 1 3.0 2.1 2 27
r 0.231728 3 4 tcp 1040 ------- 1 3.1 4.0 2 17
+ 0.231728 4 3 ack 40 ------- 1 4.0 3.1 2 28
- 0.231728 4 3 ack 40 ------- 1 4.0 3.1 2 28
r 0.231728 4 0 tcp 1040 ------- 1 4.1 0.1 2 19
+ 0.231728 0 4 ack 40 ------- 1 0.1 4.1 2 29
- 0.231728 0 4 ack 40 ------- 1 0.1 4.1 2 29
r 0.240928 1 0 ack 40 ------- 1 1.0 0.0 1 20
+ 0.240928 0 1 tcp 1040 ------- 1 0.0 1.0 3 30
- 0.240928 0 1 tcp 1040 ------- 1 0.0 1.0 3 30
+ 0.240928 0 1 tcp 1040 ------- 1 0.0 1.0 4 31
r 0.240928 2 1 ack 40 ------- 1 2.0 1.1 1 21
+ 0.240928 1 2 tcp 1040 ------- 1 1.1 2.0 3 32
- 0.240928 1 2 tcp 1040 ------- 1 1.1 2.0 3 32
+ 0.240928 1 2 tcp 1040 ------- 1 1.1 2.0 4 33
r 0.240928 3 2 ack 40 ------- 1 3.0 2.1 1 22
+ 0.240928 2 3 tcp 1040 ------- 1 2.1 3.0 3 34
- 0.240928 2 3 tcp 1040 ------- 1 2.1 3.0 3 34
+ 0.240928 2 3 tcp 1040 ------- 1 2.1 3.0 4 35
r 0.240928 4 3 ack 40 ------- 1 4.0 3.1 1 23
+ 0.240928 3 4 tcp 1040 ------- 1 3.1 4.0 3 36
- 0.240928 3 4 tcp 1040 ------- 1 3.1 4.0 3 36
+ 0.240928 3 4 tcp 1040 ------- 1 3.1 4.0 4 37
r 0.240928 0 4 ack 40 ------- 1 0.1 4.1 1 24
+ 0.240928 4 0 tcp 1040 ------- 1 4.1 0.1 3 38
- 0.240928 4 0 tcp 1040 ------- 1 4.1 0.1 3 38
+ 0.240928 4 0 tcp 1040 ------- 1 4.1 0.1 4 39
r 0.24176 1 0 ack 40 ------- 1 1.0 0.0 2 25
+ 0.24176 0 1 tcp 1040 ------- 1 0.0 1.0 5 40
+ 0.24176 0 1 tcp 1040 ------- 1 0.0 1.0 6 41
r 0.24176 2 1 ack 40 ------- 1 2.0 1.1 2 26
+ 0.24176 1 2 tcp 1040 ------- 1 1.1 2.0 5 42
+ 0.24176 1 2 tcp 1040 ------- 1 1.1 2.0 6 43
r 0.24176 3 2 ack 40 ------- 1 3.0 2.1 2 27
+ 0.24176 2 3 tcp 1040 ------- 1 2.1 3.0 5 44
+ 0.24176 2 3 tcp 1040 ------- 1 2.1 3.0 6 45
r 0.24176 4 3 ack 40 ------- 1 4.0 3.1 2 28
+ 0.24176 3 4 tcp 1040 ------- 1 3.1 4.0 5 46
+ 0.24176 3 4 tcp 1040 ------- 1 3.1 4.0 6 47
r 0.24176 0 4 ack 40 ------- 1 0.1 4.1 2 29
+ 0.24176 4 0 tcp 1040 ------- 1 4.1 0.1 5 48
+ 0.24176 4 0 tcp 1040 ------- 1 4.1 0.1 6 49
- 0.24176 0 1 tcp 1040 ------- 1 0.0 1.0 4 31
- 0.24176 1 2 tcp 1040 ------- 1 1.1 2.0 4 33
- 0.24176 2 3 tcp 1040 ------- 1 2.1 3.0 4 35
- 0.24176 3 4 tcp 1040 ------- 1 3.1 4.0 4 37
- 0.24176 4 0 tcp 1040 ------- 1 4.1 0.1 4 39
- 0.242592 0 1 tcp 1040 ------- 1 0.0 1.0 5 40
- 0.242592 1 2 tcp 1040 ------- 1 1.1 2.0 5 42
- 0.242592 2 3 tcp 1040 ------- 1 2.1 3.0 5 44
- 0.242592 3 4 tcp 1040 ------- 1 3.1 4.0 5 46
- 0.242592 4 0 tcp 1040 ------- 1 4.1 0.1 5 48
- 0.243424 0 1 tcp 1040 ------- 1 0.0 1.0 6 41
- 0.243424 1 2 tcp 1040 ------- 1 1.1 2.0 6 43
- 0.243424 2 3 tcp 1040 ------- 1 2.1 3.0 6 45
- 0.243424 3 4 tcp 1040 ------- 1 3.1 4.0 6 47
- 0.243424 4 0 tcp 1040 ------- 1 4.1 0.1 6 49
r 0.25176 0 1 tcp 1040 ------- 1 0.0 1.0 3 30
+ 0.25176 1 0 ack 40 ------- 1 1.0 0.0 3 50
- 0.25176 1 0 ack 40 ------- 1 1.0 0.0 3 50
r 0.25176 1 2 tcp 1040 ------- 1 1.1 2.0 3 32
+ 0.25176 2 1 ack 40 ------- 1 2.0 1.1 3 51
- 0.25176 2 1 ack 40 ------- 1 2.0 1.1 3 51
r 0.25176 2 3 tcp 1040 ------- 1 2.1 3.0 3 34
+ 0.25176 3 2 ack 40 ------- 1 3.0 2.1 3 52
- 0.25176 3 2 ack 40 ------- 1 3.0 2.1 3 52
r 0.25176 3 4 tcp 1040 ------- 1 3.1 4.0 3 36
+ 0.25176 4 3 ack 40 ------- 1 4.0 3.1 3 53
- 0.25176 4 3 ack 40 ------- 1 4.0 3.1 3 53
r 0.25176 4 0 tcp 1040 ------- 1 4.1 0.1 3 38
+ 0.25176 0 4 ack 40 ------- 1 0.1 4.1 3 54
- 0.25176 0 4 ack 40 ------- 1 0.1 4.1 3 54
r 0.252592 0 1 tcp 1040 ------- 1 0.0 1.0 4 31
+ 0.252592 1 0 ack 40 ------- 1 1.0 0.0 4 55
- 0.252592 1 0 ack 40 ------- 1 1.0 0.0 4 55
r 0.252592 1 2 tcp 1040 ------- 1 1.1 2.0 4 33
+ 0.252592 2 1 ack 40 ------- 1 2.0 1.1 4 56
- 0.252592 2 1 ack 40 ------- 1 2.0 1.1 4 56
r 0.252592 2 3 tcp 1040 ------- 1 2.1 3.0 4 35
+ 0.252592 3 2 ack 40 ------- 1 3.0 2.1 4 57
- 0.252592 3 2 ack 40 ------- 1 3.0 2.1 4 57
r 0.252592 3 4 tcp 1040 ------- 1 3.1 4.0 4 37
+ 0.252592 4 3 ack 40 ------- 1 4.0 3.1 4 58
- 0.252592 4 3 ack 40 ------- 1 4.0 3.1 4 58
r 0.252592 4 0 tcp 1040 ------- 1 4.1 0.1 4 39
+ 0.252592 0 4 ack 40 ------- 1 0.1 4.1 4 59
- 0.252592 0 4 ack 40 ------- 1 0.1 4.1 4 59
r 0.253424 0 1 tcp 1040 ------- 1 0.0 1.0 5 40
+ 0.253424 1 0 ack 40 ------- 1 1.0 0.0 5 60
- 0.253424 1 0 ack 40 ------- 1 1.0 0.0 5 60
r 0.253424 1 2 tcp 1040 ------- 1 1.1 2.0 5 42
+ 0.253424 2 1 ack 40 ------- 1 2.0 1.1 5 61
- 0.253424 2 1 ack 40 ------- 1 2.0 1.1 5 61
r 0.253424 2 3 tcp 1040 ------- 1 2.1 3.0 5 44
+ 0.253424 3 2 ack 40 ------- 1 3.0 2.1 5 62
- 0.253424 3 2 ack 40 ------- 1 3.0 2.1 5 62
r 0.253424 3 4 tcp 1040 ------- 1 3.1 4.0 5 46
+ 0.253424 4 3 ack 40 ------- 1 4.0 3.1 5 63
- 0.253424 4 3 ack 40 ------- 1 4.0 3.1 5 63
r 0.253424 4 0 tcp 1040 ------- 1 4.1 0.1 5 48
+ 0.253424 0 4 ack 40 ------- 1 0.1 4.1 5 64
- 0.253424 0 4 ack 40 ------- 1 0.1 4.1 5 64
r 0.254256 0 1 tcp 1040 ------- 1 0.0 1.0 6 41
+ 0.254256 1 0 ack 40 ------- 1 1.0 0.0 6 65
- 0.254256 1 0 ack 40 ------- 1 1.0 0.0 6 65
r 0.254256 1 2 tcp 1040 ------- 1 1.1 2.0 6 43
+ 0.254256 2 1 ack 40 ------- 1 2.0 1.1 6 66
- 0.254256 2 1 ack 40 ------- 1 2.0 1.1 6 66
r 0.254256 2 3 tcp 1040 ------- 1 2.1 3.0 6 45
+ 0.254256 3 2 ack 40 ------- 1 3.0 2.1 6 67
- 0.254256 3 2 ack 40 ------- 1 3.0 2.1 6 67
r 0.254256 3 4 tcp 1040 ------- 1 3.1 4.0 6 47
+ 0.254256 4 3 ack 40 ------- 1 4.0 3.1 6 68
- 0.254256 4 3 ack 40 ------- 1 4.0 3.1 6 68
r 0.254256 4 0 tcp 1040 ------- 1 4.1 0.1 6 49
+ 0.254256 0 4 ack 40 ------- 1 0.1 4.1 6 69
- 0.254256 0 4 ack 40 ------- 1 0.1 4.1 6 69
r 0.261792 1 0 ack 40 ------- 1 1.0 0.0 3 50
+ 0.261792 0 1 tcp 1040 ------- 1 0.0 1.0 7 70
- 0.261792 0 1 tcp 1040 ------- 1 0.0 1.0 7 70
+ 0.261792 0 1 tcp 1040 ------- 1 0.0 1.0 8 71
r 0.261792 2 1 ack 40 ------- 1 2.0 1.1 3 51
+ 0.261792 1 2 tcp 1040 ------- 1 1.1 2.0 7 72
- 0.261792 1 2 tcp 1040 ------- 1 1.1 2.0 7 72
+ 0.261792 1 2 tcp 1040 ------- 1 1.1 2.0 8 73
r 0.261792 3 2 ack 40 ------- 1 3.0 2.1 3 52
+ 0.261792 2 3 tcp 1040 ------- 1 2.1 3.0 7 74
- 0.261792 2 3 tcp 1040 ------- 1 2.1 3.0 7 74
+ 0.261792 2 3 tcp 1040 ------- 1 2.1 3.0 8 75
r 0.261792 4 3 ack 40 ------- 1 4.0 3.1 3 53
+ 0.261792 3 4 tcp 1040 ------- 1 3.1 4.0 7 76
- 0.261792 3 4 tcp 1040 ------- 1 3.1 4.0 7 76
+ 0.261792 3 4 tcp 1040 ------- 1 3.1 4.0 8 77
r 0.261792 0 4 ack 40 ------- 1 0.1 4.1 3 54
+ 0.261792 4 0 tcp 1040 ------- 1 4.1 0.1 7 78
- 0.261792 4 0 tcp 1040 ------- 1 4.1 0.1 7 78
+ 0.261792 4 0 tcp 1040 ------- 1 4.1 0.1 8 79
r 0.262624 1 0 ack 40 ------- 1 1.0 0.0 4 55
+ 0.262624 0 1 tcp 1040 ------- 1 0.0 1.0 9 80
+ 0.262624 0 1 tcp 1040 ------- 1 0.0 1.0 10 81
r 0.262624 2 1 ack 40 ------- 1 2.0 1.1 4 56
+ 0.262624 1 2 tcp 1040 ------- 1 1.1 2.0 9 82
+ 0.262624 1 2 tcp 1040 ------- 1 1.1 2.0 10 83
r 0.262624 3 2 ack 40 ------- 1 3.0 2.1 4 57
+ 0.262624 2 3 tcp 1040 ------- 1 2.1 3.0 9 84
+ 0.262624 2 3 tcp 1040 ------- 1 2.1 3.0 10 85
r 0.262624 4 3 ack 40 ------- 1 4.0 3.1 4 58
+ 0.262624 3 4 tcp 1040 ------- 1 3.1 4.0 9 86
+ 0.262624 3 4 tcp 1040 ------- 1 3.1 4.0 10 87
r 0.262624 0 4 ack 40 ------- 1 0.1 4.1 4 59
+ 0.262624 4 0 tcp 1040 ------- 1 4.1 0.1 9 88
+ 0.262624 4 0 tcp 1040 ------- 1 4.1 0.1 10 89
- 0.262624 0 1 tcp 1040 ------- 1 0.0 1.0 8 71
- 0.262624 1 2 tcp 1040 ------- 1 1.1 2.0 8 73
- 0.262624 2 3 tcp 1040 ------- 1 2.1 3.0 8 75
- 0.262624 3 4 tcp 1040 ------- 1 3.1 4.0 8 77
- 0.262624 4 0 tcp 1040 ------- 1 4.1 0.1 8 79
r 0.263456 1 0 ack 40 ------- 1 1.0 0.0 5 60
+ 0.263456 0 1 tcp 1040 ------- 1 0.0 1.0 11 90
+ 0.263456 0 1 tcp 1040 ------- 1 0.0 1.0 12 91
r 0.263456 2 1 ack 40 ------- 1 2.0 1.1 5 61
+ 0.263456 1 2 tcp 1040 ------- 1 1.1 2.0 11 92
+ 0.263456 1 2 tcp 1040 ------- 1 1.1 2.0 12 93
r 0.263456 3 2 ack 40 ------- 1 3.0 2.1 5 62
+ 0.263456 2 3 tcp 1040 ------- 1 2.1 3.0 11 94
+ 0.263456 2 3 tcp 1040 ------- 1 2.1 3.0 12 95
r 0.263456 4 3 ack 40 ------- 1 4.0 3.1 5 63
+ 0.263456 3 4 tcp 1040 ------- 1 3.1 4.0 11 96
+ 0.263456 3 4 tcp 1040 ------- 1 3.1 4.0 12 97
r 0.263456 0 4 ack 40 ------- 1 0.1 4.1 5 64
+ 0.263456 4 0 tcp 1040 ------- 1 4.1 0.1 11 98
+ 0.263456 4 0 tcp 1040 ------- 1 4.1 0.1 12 99
- 0.263456 0 1 tcp 1040 ------- 1 0.0 1.0 9 80
- 0.263456 1 2 tcp 1040 ------- 1 1.1 2.0 9 82
- 0.263456 2 3 tcp 1040 ------- 1 2.1 3.0 9 84
- 0.263456 3 4 tcp 1040 ------- 1 3.1 4.0 9 86
- 0.263456 4 0 tcp 1040 ------- 1 4.1 0.1 9 88
r 0.264288 1 0 ack 40 ------- 1 1.0 0.0 6 65
+ 0.264288 0 1 tcp 1040 ------- 1 0.0 1.0 13 100
+ 0.264288 0 1 tcp 1040 ------- 1 0.0 1.0 14 101
d 0.264288 0 1 tcp 1040 ------- 1 0.0 1.0 14 101
r 0.264288 2 1 ack 40 ------- 1 2.0 1.1 6 66
+ 0.264288 1 2 tcp 1040 ------- 1 1.1 2.0 13 102
+ 0.264288 1 2 tcp 1040 ------- 1 1.1 2.0 14 103
d 0.264288 1 2 tcp 1040 ------- 1 1.1 2.0 14 103
r 0.264288 3 2 ack 40 ------- 1 3.0 2.1 6 67
+ 0.264288 2 3 tcp 1040 ------- 1 2.1 3.0 13 104
+ 0.264288 2 3 tcp 1040 ------- 1 2.1 3.0 14 105
d 0.264288 2 3 tcp 1040 ------- 1 2.1 3.0 14 105
r 0.264288 4 3 ack 40 ------- 1 4.0 3.1 6 68
+ 0.264288 3 4 tcp 1040 ------- 1 3.1 4.0 13 106
+ 0.264288 3 4 tcp 1040 ------- 1 3.1 4.0 14 107
d 0.264288 3 4 tcp 1040 ------- 1 3.1 4.0 14 107
r 0.264288 0 4 ack 40 ------- 1 0.1 4.1 6 69
+ 0.264288 4 0 tcp 1040 ------- 1 4.1 0.1 13 108
+ 0.264288 4 0 tcp 1040 ------- 1 4.1 0.1 14 109
d 0.264288 4 0 tcp 1040 ------- 1 4.1 0.1 14 109
- 0.264288 0 1 tcp 1040 ------- 1 0.0 1.0 10 81
- 0.264288 1 2 tcp 1040 ------- 1 1.1 2.0 10 83
- 0.264288 2 3 tcp 1040 ------- 1 2.1 3.0 10 85
- 0.264288 3 4 tcp 1040 ------- 1 3.1 4.0 10 87
- 0.264288 4 0 tcp 1040 ------- 1 4.1 0.1 10 89
- 0.26512 0 1 tcp 1040 ------- 1 0.0 1.0 11 90
- 0.26512 1 2 tcp 1040 ------- 1 1.1 2.0 11 92
- 0.26512 2 3 tcp 1040 ------- 1 2.1 3.0 11 94
- 0.26512 3 4 tcp 1040 ------- 1 3.1 4.0 11 96
- 0.26512 4 0 tcp 1040 ------- 1 4.1 0.1 11 98
- 0.265952 0 1 tcp 1040 ------- 1 0.0 1.0 12 91
- 0.265952 1 2 tcp 1040 ------- 1 1.1 2.0 12 93
- 0.265952 2 3 tcp 1040 ------- 1 2.1 3.0 12 95
- 0.265952 3 4 tcp 1040 ------- 1 3.1 4.0 12 97
- 0.265952 4 0 tcp 1040 ------- 1 4.1 0.1 12 99
- 0.266784 0 1 tcp 1040 ------- 1 0.0 1.0 13 100
- 0.266784 1 2 tcp 1040 ------- 1 1.1 2.0 13 102
- 0.266784 2 3 tcp 1040 ------- 1 2.1 3.0 13 104
- 0.266784 3 4 tcp 1040 ------- 1 3.1 4.0 13 106
- 0.266784 4 0 tcp 1040 ------- 1 4.1 0.1 13 108
r 0.272624 0 1 tcp 1040 ------- 1 0.0 1.0 7 70
+ 0.272624 1 0 ack 40 ------- 1 1.0 0.0 7 110
- 0.272624 1 0 ack 40 ------- 1 1.0 0.0 7 110
r 0.272624 1 2 tcp 1040 ------- 1 1.1 2.0 7 72
+ 0.272624 2 1 ack 40 ------- 1 2.0 1.1 7 111
- 0.272624 2 1 ack 40 ------- 1 2.0 1.1 7 111
r 0.272624 2 3 tcp 1040 ------- 1 2.1 3.0 7 74
+ 0.272624 3 2 ack 40 ------- 1 3.0 2.1 7 112
- 0.272624 3 2 ack 40 ------- 1 3.0 2.1 7 112
r 0.272624 3 4 tcp 1040 ------- 1 3.1 4.0 7 76
+ 0.272624 4 3 ack 40 ------- 1 4.0 3.1 7 113
- 0.272624 4 3 ack 40 ------- 1 4.0 3.1 7 113
r 0.272624 4 0 tcp 1040 ------- 1 4.1 0.1 7 78
+ 0.272624 0 4 ack 40 ------- 1 0.1 4.1 7 114
- 0.272624 0 4 ack 40 ------- 1 0.1 4.1 7 114
r 0.273456 0 1 tcp 1040 ------- 1 0.0 1.0 8 71
+ 0.273456 1 0 ack 40 ------- 1 1.0 0.0 8 115
- 0.273456 1 0 ack 40 ------- 1 1.0 0.0 8 115
r 0.273456 1 2 tcp 1040 ------- 1 1.1 2.0 8 73
+ 0.273456 2 1 ack 40 ------- 1 2.0 1.1 8 116
- 0.273456 2 1 ack 40 ------- 1 2.0 1.1 8 116
r 0.273456 2 3 tcp 1040 ------- 1 2.1 3.0 8 75
+ 0.273456 3 2 ack 40 ------- 1 3.0 2.1 8 117
- 0.273456 3 2 ack 40 ------- 1 3.0 2.1 8 117
r 0.273456 3 4 tcp 1040 ------- 1 3.1 4.0 8 77
+ 0.273456 4 3 ack 40 ------- 1 4.0 3.1 8 118
- 0.273456 4 3 ack 40 ------- 1 4.0 3.1 8 118
r 0.273456 4 0 tcp 1040 ------- 1 4.1 0.1 8 79
+ 0.273456 0 4 ack 40 ------- 1 0.1 4.1 8 119
- 0.273456 0 4 ack 40 ------- 1 0.1 4.1 8 119
r 0.274288 0 1 tcp 1040 ------- 1 0.0 1.0 9 80
+ 0.274288 1 0 ack 40 ------- 1 1.0 0.0 9 120
- 0.274288 1 0 ack 40 ------- 1 1.0 0.0 9 120
r 0.274288 1 2 tcp 1040 ------- 1 1.1 2.0 9 82
+ 0.274288 2 1 ack 40 ------- 1 2.0 1.1 9 121
- 0.274288 2 1 ack 40 ------- 1 2.0 1.1 9 121
r 0.274288 2 3 tcp 1040 ------- 1 2.1 3.0 9 84
+ 0.274288 3 2 ack 40 ------- 1 3.0 2.1 9 122
- 0.274288 3 2 ack 40 ------- 1 3.0 2.1 9 122
r 0.274288 3 4 tcp 1040 ------- 1 3.1 4.0 9 86
+ 0.274288 4 3 ack 40 ------- 1 4.0 3.1 9 123
- 0.274288 4 3 ack 40 ------- 1 4.0 3.1 9 123
r 0.274288 4 0 tcp 1040 ------- 1 4.1 0.1 9 88
+ 0.274288 0 4 ack 40 ------- 1 0.1 4.1 9 124
- 0.274288 0 4 ack 40 ------- 1 0.1 4.1 9 124
r 0.27512 0 1 tcp 1040 ------- 1 0.0 1.0 10 81
+ 0.27512 1 0 ack 40 ------- 1 1.0 0.0 10 125
- 0.27512 1 0 ack 40 ------- 1 1.0 0.0 10 125
r 0.27512 1 2 tcp 1040 ------- 1 1.1 2.0 10 83
+ 0.27512 2 1 ack 40 ------- 1 2.0 1.1 10 126
- 0.27512 2 1 ack 40 ------- 1 2.0 1.1 10 126
r 0.27512 2 3 tcp 1040 ------- 1 2.1 3.0 10 85
+ 0.27512 3 2 ack 40 ------- 1 3.0 2.1 10 127
- 0.27512 3 2 ack 40 ------- 1 3.0 2.1 10 127
r 0.27512 3 4 tcp 1040 ------- 1 3.1 4.0 10 87
+ 0.27512 4 3 ack 40 ------- 1 4.0 3.1 10 128
- 0.27512 4 3 ack 40 ------- 1 4.0 3.1 10 128
r 0.27512 4 0 tcp 1040 ------- 1 4.1 0.1 10 89
+ 0.27512 0 4 ack 40 ------- 1 0.1 4.1 10 129
- 0.27512 0 4 ack 40 ------- 1 0.1 4.1 10 129
r 0.275952 0 1 tcp 1040 ------- 1 0.0 1.0 11 90
+ 0.275952 1 0 ack 40 ------- 1 1.0 0.0 11 130
- 0.275952 1 0 ack 40 ------- 1 1.0 0.0 11 130
r 0.275952 1 2 tcp 1040 ------- 1 1.1 2.0 11 92
+ 0.275952 2 1 ack 40 ------- 1 2.0 1.1 11 131
- 0.275952 2 1 ack 40 ------- 1 2.0 1.1 11 131
r 0.275952 2 3 tcp 1040 ------- 1 2.1 3.0 11 94
+ 0.275952 3 2 ack 40 ------- 1 3.0 2.1 11 132
- 0.275952 3 2 ack 40 ------- 1 3.0 2.1 11 132
r 0.275952 3 4 tcp 1040 ------- 1 3.1 4.0 11 96
+ 0.275952 4 3 ack 40 ------- 1 4.0 3.1 11 133
- 0.275952 4 3 ack 40 ------- 1 4.0 3.1 11 133
r 0.275952 4 0 tcp 1040 ------- 1 4.1 0.1 11 98
+ 0.275952 0 4 ack 40 ------- 1 0.1 4.1 11 134
- 0.275952 0 4 ack 40 ------- 1 0.1 4.1 11 134
r 0.276784 0 1 tcp 1040 ------- 1 0.0 1.0 12 91
+ 0.276784 1 0 ack 40 ------- 1 1.0 0.0 12 135
- 0.276784 1 0 ack 40 ------- 1 1.0 0.0 12 135
r 0.276784 1 2 tcp 1040 ------- 1 1.1 2.0 12 93
+ 0.276784 2 1 ack 40 ------- 1 2.0 1.1 12 136
- 0.276784 2 1 ack 40 ------- 1 2.0 1.1 12 136
r 0.276784 2 3 tcp 1040 ------- 1 2.1 3.0 12 95
+ 0.276784 3 2 ack 40 ------- 1 3.0 2.1 12 137
- 0.276784 3 2 ack 40 ------- 1 3.0 2.1 12 137
r 0.276784 3 4 tcp 1040 ------- 1 3.1 4.0 12 97
+ 0.276784 4 3 ack 40 ------- 1 4.0 3.1 12 138
- 0.276784 4 3 ack 40 ------- 1 4.0 3.1 12 138
r 0.276784 4 0 tcp 1040 ------- 1 4.1 0.1 12 99
+ 0.276784 0 4 ack 40 ------- 1 0.1 4.1 12 139
- 0.276784 0 4 ack 40 ------- 1 0.1 4.1 12 139
r 0.277616 0 1 tcp 1040 ------- 1 0.0 1.0 13 100
+ 0.277616 1 0 ack 40 ------- 1 1.0 0.0 13 140
- 0.277616 1 0 ack 40 ------- 1 1.0 0.0 13 140
r 0.277616 1 2 tcp 1040 ------- 1 1.1 2.0 13 102
+ 0.277616 2 1 ack 40 ------- 1 2.0 1.1 13 141
- 0.277616 2 1 ack 40 ------- 1 2.0 1.1 13 141
r 0.277616 2 3 tcp 1040 ------- 1 2.1 3.0 13 104
+ 0.277616 3 2 ack 40 ------- 1 3.0 2.1 13 142
- 0.277616 3 2 ack 40 ------- 1 3.0 2.1 13 142
r 0.277616 3 4 tcp 1040 ------- 1 3.1 4.0 13 106
+ 0.277616 4 3 ack 40 ------- 1 4.0 3.1 13 143
- 0.277616 4 3 ack 40 ------- 1 4.0 3.1 13 143
r 0.277616 4 0 tcp 1040 ------- 1 4.1 0.1 13 108
+ 0.277616 0 4 ack 40 ------- 1 0.1 4.1 13 144
- 0.277616 0 4 ack 40 ------- 1 0.1 4.1 13 144
r 0.282656 1 0 ack 40 ------- 1 1.0 0.0 7 110
+ 0.282656 0 1 tcp 1040 ------- 1 0.0 1.0 15 145
- 0.282656 0 1 tcp 1040 ------- 1 0.0 1.0 15 145
+ 0.282656 0 1 tcp 1040 ------- 1 0.0 1.0 16 146
r 0.282656 2 1 ack 40 ------- 1 2.0 1.1 7 111
+ 0.282656 1 2 tcp 1040 ------- 1 1.1 2.0 15 147
- 0.282656 1 2 tcp 1040 ------- 1 1.1 2.0 15 147
+ 0.282656 1 2 tcp 1040 ------- 1 1.1 2.0 16 148
r 0.282656 3 2 ack 40 ------- 1 3.0 2.1 7 112
+ 0.282656 2 3 tcp 1040 ------- 1 2.1 3.0 15 149
- 0.282656 2 3 tcp 1040 ------- 1 2.1 3.0 15 149
+ 0.282656 2 3 tcp 1040 ------- 1 2.1 3.0 16 150
r 0.282656 4 3 ack 40 ------- 1 4.0 3.1 7 113
+ 0.282656 3 4 tcp 1040 ------- 1 3.1 4.0 15 151
- 0.282656 3 4 tcp 1040 ------- 1 3.1 4.0 15 151
+ 0.282656 3 4 tcp 1040 ------- 1 3.1 4.0 16 152
r 0.282656 0 4 ack 40 ------- 1 0.1 4.1 7 114
+ 0.282656 4 0 tcp 1040 ------- 1 4.1 0.1 15 153
- 0.282656 4 0 tcp 1040 ------- 1 4.1 0.1 15 153
+ 0.282656 4 0 tcp 1040 ------- 1 4.1 0.1 16 154
r 0.283488 1 0 ack 40 ------- 1 1.0 0.0 8 115
+ 0.283488 0 1 tcp 1040 ------- 1 0.0 1.0 17 155
+ 0.283488 0 1 tcp 1040 ------- 1 0.0 1.0 18 156
r 0.283488 2 1 ack 40 ------- 1 2.0 1.1 8 116
+ 0.283488 1 2 tcp 1040 ------- 1 1.1 2.0 17 157
+ 0.283488 1 2 tcp 1040 ------- 1 1.1 2.0 18 158
r 0.283488 3 2 ack 40 ------- 1 3.0 2.1 8 117
+ 0.283488 2 3 tcp 1040 ------- 1 2.1 3.0 17 159
+ 0.283488 2 3 tcp 1040 ------- 1 2.1 3.0 18 160
r 0.283488 4 3 ack 40 ------- 1 4.0 3.1 8 118
+ 0.283488 3 4 tcp 1040 ------- 1 3.1 4.0 17 161
+ 0.283488 3 4 tcp 1040 ------- 1 3.1 4.0 18 162
r 0.283488 0 4 ack 40 ------- 1 0.1 4.1 8 119
+ 0.283488 4 0 tcp 1040 ------- 1 4.1 0.1 17 163
+ 0.283488 4 0 tcp 1040 ------- 1 4.1 0.1 18 164
- 0.283488 0 1 tcp 1040 ------- 1 0.0 1.0 16 146
- 0.283488 1 2 tcp 1040 ------- 1 1.1 2.0 16 148
- 0.283488 2 3 tcp 1040 ------- 1 2.1 3.0 16 150
- 0.283488 3 4 tcp 1040 ------- 1 3.1 4.0 16 152
- 0.283488 4 0 tcp 1040 ------- 1 4.1 0.1 16 154
r 0.28432 1 0 ack 40 ------- 1 1.0 0.0 9 120
+ 0.28432 0 1 tcp 1040 ------- 1 0.0 1.0 19 165
+ 0.28432 0 1 tcp 1040 ------- 1 0.0 1.0 20 166
r 0.28432 2 1 ack 40 ------- 1 2.0 1.1 9 121
+ 0.28432 1 2 tcp 1040 ------- 1 1.1 2.0 19 167
+ 0.28432 1 2 tcp 1040 ------- 1 1.1 2.0 20 168
r 0.28432 3 2 ack 40 ------- 1 3.0 2.1 9 122
+ 0.28432 2 3 tcp 1040 ------- 1 2.1 3.0 19 169
+ 0.28432 2 3 tcp 1040 ------- 1 2.1 3.0 20 170
r 0.28432 4 3 ack 40 ------- 1 4.0 3.1 9 123
+ 0.28432 3 4 tcp 1040 ------- 1 3.1 4.0 19 171
+ 0.28432 3 4 tcp 1040 ------- 1 3.1 4.0 20 172
r 0.28432 0 4 ack 40 ------- 1 0.1 4.1 9 124
+ 0.28432 4 0 tcp 1040 ------- 1 4.1 0.1 19 173
+ 0.28432 4 0 tcp 1040 ------- 1 4.1 0.1 20 174
- 0.28432 0 1 tcp 1040 ------- 1 0.0 1.0 17 155
- 0.28432 1 2 tcp 1040 ------- 1 1.1 2.0 17 157
- 0.28432 2 3 tcp 1040 ------- 1 2.1 3.0 17 159
- 0.28432 3 4 tcp 1040 ------- 1 3.1 4.0 17 161
- 0.28432 4 0 tcp 1040 ------- 1 4.1 0.1 17 163
r 0.285152 1 0 ack 40 ------- 1 1.0 0.0 10 125
+ 0.285152 0 1 tcp 1040 ------- 1 0.0 1.0 21 175
+ 0.285152 0 1 tcp 1040 ------- 1 0.0 1.0 22 176
d 0.285152 0 1 tcp 1040 ------- 1 0.0 1.0 22 176
r 0.285152 2 1 ack 40 ------- 1 2.0 1.1 10 126
+ 0.285152 1 2 tcp 1040 ------- 1 1.1 2.0 21 177
+ 0.285152 1 2 tcp 1040 ------- 1 1.1 2.0 22 178
d 0.285152 1 2 tcp 1040 ------- 1 1.1 2.0 22 178
r 0.285152 3 2 ack 40 ------- 1 3.0 2.1 10 127
+ 0.285152 2 3 tcp 1040 ------- 1 2.1 3.0 21 179
+ 0.285152 2 3 tcp 1040 ------- 1 2.1 3.0 22 180
d 0.285152 2 3 tcp 1040 ------- 1 2.1 3.0 22 180
r 0.285152 4 3 ack 40 ------- 1 4.0 3.1 10 128
+ 0.285152 3 4 tcp 1040 ------- 1 3.1 4.0 21 181
+ 0.285152 3 4 tcp 1040 ------- 1 3.1 4.0 22 182
d 0.285152 3 4 tcp 1040 ------- 1 3.1 4.0 22 182
r 0.285152 0 4 ack 40 ------- 1 0.1 4.1 10 129
+ 0.285152 4 0 tcp 1040 ------- 1 4.1 0.1 21 183
+ 0.285152 4 0 tcp 1040 ------- 1 4.1 0.1 22 184
d 0.285152 4 0 tcp 1040 ------- 1 4.1 0.1 22 184
- 0.285152 0 1 tcp 1040 ------- 1 0.0 1.0 18 156
- 0.285152 1 2 tcp 1040 ------- 1 1.1 2.0 18 158
- 0.285152 2 3 tcp 1040 ------- 1 2.1 3.0 18 160
- 0.285152 3 4 tcp 1040 ------- 1 3.1 4.0 18 162
- 0.285152 4 0 tcp 1040 ------- 1 4.1 0.1 18 164
r 0.285984 1 0 ack 40 ------- 1 1.0 0.0 11 130
+ 0.285984 0 1 tcp 1040 ------- 1 0.0 1.0 23 185
+ 0.285984 0 1 tcp 1040 ------- 1 0.0 1.0 24 186
d 0.285984 0 1 tcp 1040 ------- 1 0.0 1.0 24 186
r 0.285984 2 1 ack 40 ------- 1 2.0 1.1 11 131
+ 0.285984 1 2 tcp 1040 ------- 1 1.1 2.0 23 187
+ 0.285984 1 2 tcp 1040 ------- 1 1.1 2.0 24 188
d 0.285984 1 2 tcp 1040 ------- 1 1.1 2.0 24 188
r 0.285984 3 2 ack 40 ------- 1 3.0 2.1 11 132
+ 0.285984 2 3 tcp 1040 ------- 1 2.1 3.0 23 189
+ 0.285984 2 3 tcp 1040 ------- 1 2.1 3.0 24 190
d 0.285984 2 3 tcp 1040 ------- 1 2.1 3.0 24 190
r 0.285984 4 3 ack 40 ------- 1 4.0 3.1 11 133
+ 0.285984 3 4 tcp 1040 ------- 1 3.1 4.0 23 191
+ 0.285984 3 4 tcp 1040 ------- 1 3.1 4.0 24 192
d 0.285984 3 4 tcp 1040 ------- 1 3.1 4.0 24 192
r 0.285984 0 4 ack 40 ------- 1 0.1 4.1 11 134
+ 0.285984 4 0 tcp 1040 ------- 1 4.1 0.1 23 193
+ 0.285984 4 0 tcp 1040 ------- 1 4.1 0.1 24 194
d 0.285984 4 0 tcp 1040 ------- 1 4.1 0.1 24 194
- 0.285984 0 1 tcp 1040 ------- 1 0.0 1.0 19 165
- 0.285984 1 2 tcp 1040 ------- 1 1.1 2.0 19 167
- 0.285984 2 3 tcp 1040 ------- 1 2.1 3.0 19 169
- 0.285984 3 4 tcp 1040 ------- 1 3.1 4.0 19 171
- 0.285984 4 0 tcp 1040 ------- 1 4.1 0.1 19 173
r 0.286816 1 0 ack 40 ------- 1 1.0 0.0 12 135
+ 0.286816 0 1 tcp 1040 ------- 1 0.0 1.0 25 195
+ 0.286816 0 1 tcp 1040 ------- 1 0.0 1.0 26 196
d 0.286816 0 1 tcp 1040 ------- 1 0.0 1.0 26 196
r 0.286816 2 1 ack 40 ------- 1 2.0 1.1 12 136
+ 0.286816 1 2 tcp 1040 ------- 1 1.1 2.0 25 197
+ 0.286816 1 2 tcp 1040 ------- 1 1.1 2.0 26 198
d 0.286816 1 2 tcp 1040 ------- 1 1.1 2.0 26 198
r 0.286816 3 2 ack 40 ------- 1 3.0 2.1 12 137
+ 0.286816 2 3 tcp 1040 ------- 1 2.1 3.0 25 199
+ 0.286816 2 3 tcp 1040 ------- 1 2.1 3.0 26 200
d 0.286816 2 3 tcp 1040 ------- 1 2.1 3.0 26 200
r 0.286816 4 3 ack 40 ------- 1 4.0 3.1 12 138
+ 0.286816 3 4 tcp 1040 ------- 1 3.1 4.0 25 201
+ 0.286816 3 4 tcp 1040 ------- 1 3.1 4.0 26 202
d 0.286816 3 4 tcp 1040 ------- 1 3.1 4.0 26 202
r 0.286816 0 4 ack 40 ------- 1 0.1 4.1 12 139
+ 0.286816 4 0 tcp 1040 ------- 1 4.1 0.1 25 203
+ 0.286816 4 0 tcp 1040 ------- 1 4.1 0.1 26 204
d 0.286816 4 0 tcp 1040 ------- 1 4.1 0.1 26 204
- 0.286816 0 1 tcp 1040 ------- 1 0.0 1.0 20 166
- 0.286816 1 2 tcp 1040 ------- 1 1.1 2.0 20 168
- 0.286816 2 3 tcp 1040 ------- 1 2.1 3.0 20 170
- 0.286816 3 4 tcp 1040 ------- 1 3.1 4.0 20 172
- 0.286816 4 0 tcp 1040 ------- 1 4.1 0.1 20 174
r 0.287648 1 0 ack 40 ------- 1 1.0 0.0 13 140
+ 0.287648 0 1 tcp 1040 ------- 1 0.0 1.0 27 205
+ 0.287648 0 1 tcp 1040 ------- 1 0.0 1.0 28 206
d 0.287648 0 1 tcp 1040 ------- 1 0.0 1.0 28 206
r 0.287648 2 1 ack 40 ------- 1 2.0 1.1 13 141
+ 0.287648 1 2 tcp 1040 ------- 1 1.1 2.0 27 207
+ 0.287648 1 2 tcp 1040 ------- 1 1.1 2.0 28 208
d 0.287648 1 2 tcp 1040 ------- 1 1.1 2.0 28 208
r 0.287648 3 2 ack 40 ------- 1 3.0 2.1 13 142
+ 0.287648 2 3 tcp 1040 ------- 1 2.1 3.0 27 209
+ 0.287648 2 3 tcp 1040 ------- 1 2.1 3.0 28 210
d 0.287648 2 3 tcp 1040 ------- 1 2.1 3.0 28 210
r 0.287648 4 3 ack 40 ------- 1 4.0 3.1 13 143
+ 0.287648 3 4 tcp 1040 ------- 1 3.1 4.0 27 211
+ 0.287648 3 4 tcp 1040 ------- 1 3.1 4.0 28 212
d 0.287648 3 4 tcp 1040 ------- 1 3.1 4.0 28 212
r 0.287648 0 4 ack 40 ------- 1 0.1 4.1 13 144
+ 0.287648 4 0 tcp 1040 ------- 1 4.1 0.1 27 213
+ 0.287648 4 0 tcp 1040 ------- 1 4.1 0.1 28 214
d 0.287648 4 0 tcp 1040 ------- 1 4.1 0.1 28 214
- 0.287648 0 1 tcp 1040 ------- 1 0.0 1.0 21 175
- 0.287648 1 2 tcp 1040 ------- 1 1.1 2.0 21 177
- 0.287648 2 3 tcp 1040 ------- 1 2.1 3.0 21 179
- 0.287648 3 4 tcp 1040 ------- 1 3.1 4.0 21 181
- 0.287648 4 0 tcp 1040 ------- 1 4.1 0.1 21 183
- 0.28848 0 1 tcp 1040 ------- 1 0.0 1.0 23 185
- 0.28848 1 2 tcp 1040 ------- 1 1.1 2.0 23 187
- 0.28848 2 3 tcp 1040 ------- 1 2.1 3.0 23 189
- 0.28848 3 4 tcp 1040 ------- 1 3.1 4.0 23 191
- 0.28848 4 0 tcp 1040 ------- 1 4.1 0.1 23 193
- 0.289312 0 1 tcp 1040 ------- 1 0.0 1.0 25 195
- 0.289312 1 2 tcp 1040 ------- 1 1.1 2.0 25 197
- 0.289312 2 3 tcp 1040 ------- 1 2.1 3.0 25 199
- 0.289312 3 4 tcp 1040 ------- 1 3.1 4.0 25 201
- 0.289312 4 0 tcp 1040 ------- 1 4.1 0.1 25 203
- 0.290144 0 1 tcp 1040 ------- 1 0.0 1.0 27 205
- 0.290144 1 2 tcp 1040 ------- 1 1.1 2.0 27 207
- 0.290144 2 3 tcp 1040 ------- 1 2.1 3.0 27 209
- 0.290144 3 4 tcp 1040 ------- 1 3.1 4.0 27 211
- 0.290144 4 0 tcp 1040 ------- 1 4.1 0.1 27 213
r 0.293488 0 1 tcp 1040 ------- 1 0.0 1.0 15 145
+ 0.293488 1 0 ack 40 ------- 1 1.0 0.0 13 215
- 0.293488 1 0 ack 40 ------- 1 1.0 0.0 13 215
r 0.293488 1 2 tcp 1040 ------- 1 1.1 2.0 15 147
+ 0.293488 2 1 ack 40 ------- 1 2.0 1.1 13 216
- 0.293488 2 1 ack 40 ------- 1 2.0 1.1 13 216
r 0.293488 2 3 tcp 1040 ------- 1 2.1 3.0 15 149
+ 0.293488 3 2 ack 40 ------- 1 3.0 2.1 13 217
- 0.293488 3 2 ack 40 ------- 1 3.0 2.1 13 217
r 0.293488 3 4 tcp 1040 ------- 1 3.1 4.0 15 151
+ 0.293488 4 3 ack 40 ------- 1 4.0 3.1 13 218
- 0.293488 4 3 ack 40 ------- 1 4.0 3.1 13 218
r 0.293488 4 0 tcp 1040 ------- 1 4.1 0.1 15 153
+ 0.293488 0 4 ack 40 ------- 1 0.1 4.1 13 219
- 0.293488 0 4 ack 40 ------- 1 0.1 4.1 13 219
r 0.29432 0 1 tcp 1040 ------- 1 0.0 1.0 16 146
+ 0.29432 1 0 ack 40 ------- 1 1.0 0.0 13 220
- 0.29432 1 0 ack 40 ------- 1 1.0 0.0 13 220
r 0.29432 1 2 tcp 1040 ------- 1 1.1 2.0 16 148
+ 0.29432 2 1 ack 40 ------- 1 2.0 1.1 13 221
- 0.29432 2 1 ack 40 ------- 1 2.0 1.1 13 221
r 0.29432 2 3 tcp 1040 ------- 1 2.1 3.0 16 150
+ 0.29432 3 2 ack 40 ------- 1 3.0 2.1 13 222
- 0.29432 3 2 ack 40 ------- 1 3.0 2.1 13 222
r 0.29432 3 4 tcp 1040 ------- 1 3.1 4.0 16 152
+ 0.29432 4 3 ack 40 ------- 1 4.0 3.1 13 223
- 0.29432 4 3 ack 40 ------- 1 4.0 3.1 13 223
r 0.29432 4 0 tcp 1040 ------- 1 4.1 0.1 16 154
+ 0.29432 0 4 ack 40 ------- 1 0.1 4.1 13 224
- 0.29432 0 4 ack 40 ------- 1 0.1 4.1 13 224
r 0.295152 0 1 tcp 1040 ------- 1 0.0 1.0 17 155
+ 0.295152 1 0 ack 40 ------- 1 1.0 0.0 13 225
- 0.295152 1 0 ack 40 ------- 1 1.0 0.0 13 225
r 0.295152 1 2 tcp 1040 ------- 1 1.1 2.0 17 157
+ 0.295152 2 1 ack 40 ------- 1 2.0 1.1 13 226
- 0.295152 2 1 ack 40 ------- 1 2.0 1.1 13 226
r 0.295152 2 3 tcp 1040 ------- 1 2.1 3.0 17 159
+ 0.295152 3 2 ack 40 ------- 1 3.0 2.1 13 227
- 0.295152 3 2 ack 40 ------- 1 3.0 2.1 13 227
r 0.295152 3 4 tcp 1040 ------- 1 3.1 4.0 17 161
+ 0.295152 4 3 ack 40 ------- 1 4.0 3.1 13 228
- 0.295152 4 3 ack 40 ------- 1 4.0 3.1 13 228
r 0.295152 4 0 tcp 1040 ------- 1 4.1 0.1 17 163
+ 0.295152 0 4 ack 40 ------- 1 0.1 4.1 13 229
- 0.295152 0 4 ack 40 ------- 1 0.1 4.1 13 229
r 0.295984 0 1 tcp 1040 ------- 1 0.0 1.0 18 156
+ 0.295984 1 0 ack 40 ------- 1 1.0 0.0 13 230
- 0.295984 1 0 ack 40 ------- 1 1.0 0.0 13 230
r 0.295984 1 2 tcp 1040 ------- 1 1.1 2.0 18 158
+ 0.295984 2 1 ack 40 ------- 1 2.0 1.1 13 231
- 0.295984 2 1 ack 40 ------- 1 2.0 1.1 13 231
r 0.295984 2 3 tcp 1040 ------- 1 2.1 3.0 18 160
+ 0.295984 3 2 ack 40 ------- 1 3.0 2.1 13 232
- 0.295984 3 2 ack 40 ------- 1 3.0 2.1 13 232
r 0.295984 3 4 tcp 1040 ------- 1 3.1 4.0 18 162
+ 0.295984 4 3 ack 40 ------- 1 4.0 3.1 13 233
- 0.295984 4 3 ack 40 ------- 1 4.0 3.1 13 233
r 0.295984 4 0 tcp 1040 ------- 1 4.1 0.1 18 164
+ 0.295984 0 4 ack 40 ------- 1 0.1 4.1 13 234
- 0.295984 0 4 ack 40 ------- 1 0.1 4.1 13 234
r 0.296816 0 1 tcp 1040 ------- 1 0.0 1.0 19 165
+ 0.296816 1 0 ack 40 ------- 1 1.0 0.0 13 235
- 0.296816 1 0 ack 40 ------- 1 1.0 0.0 13 235
r 0.296816 1 2 tcp 1040 ------- 1 1.1 2.0 19 167
+ 0.296816 2 1 ack 40 ------- 1 2.0 1.1 13 236
- 0.296816 2 1 ack 40 ------- 1 2.0 1.1 13 236
r 0.296816 2 3 tcp 1040 ------- 1 2.1 3.0 19 169
+ 0.296816 3 2 ack 40 ------- 1 3.0 2.1 13 237
- 0.296816 3 2 ack 40 ------- 1 3.0 2.1 13 237