+ 0.2 0 1 tcp 40 ------- 1 0.0 1.0 0 0
- 0.2 0 1 tcp 40 ------- 1 0.0 1.0 0 0
+ 0.2 1 2 tcp 40 ------- 1 1.1 2.0 0 1
- 0.2 1 2 tcp 40 ------- 1 1.1 2.0 0 1
+ 0.2 2 3 tcp 40 ------- 1 2.1 3.0 0 2
- 0.2 2 3 tcp 40 ------- 1 2.1 3.0 0 2
+ 0.2 3 4 tcp 40 ------- 1 3.1 4.0 0 3
- 0.2 3 4 tcp 40 ------- 1 3.1 4.0 0 3
+ 0.2 4 0 tcp 40 ------- 1 4.1 0.1 0 4
- 0.2 4 0 tcp 40 ------- 1 4.1 0.1 0 4
r 0.210003 0 1 tcp 40 ------- 1 0.0 1.0 0 0
+ 0.210003 1 0 ack 40 ------- 1 1.0 0.0 0 5
- 0.210003 1 0 ack 40 ------- 1 1.0 0.0 0 5
r 0.210003 1 2 tcp 40 ------- 1 1.1 2.0 0 1
+ 0.210003 2 1 ack 40 ------- 1 2.0 1.1 0 6
- 0.210003 2 1 ack 40 ------- 1 2.0 1.1 0 6
r 0.210003 2 3 tcp 40 ------- 1 2.1 3.0 0 2
+ 0.210003 3 2 ack 40 ------- 1 3.0 2.1 0 7
- 0.210003 3 2 ack 40 ------- 1 3.0 2.1 0 7
r 0.210003 3 4 tcp 40 ------- 1 3.1 4.0 0 3
+ 0.210003 4 3 ack 40 ------- 1 4.0 3.1 0 8
- 0.210003 4 3 ack 40 ------- 1 4.0 3.1 0 8
r 0.210003 4 0 tcp 40 ------- 1 4.1 0.1 0 4
+ 0.210003 0 4 ack 40 ------- 1 0.1 4.1 0 9
- 0.210003 0 4 ack 40 ------- 1 0.1 4.1 0 9
r 0.220006 1 0 ack 40 ------- 1 1.0 0.0 0 5
+ 0.220006 0 1 tcp 1040 ------- 1 0.0 1.0 1 10
- 0.220006 0 1 tcp 1040 ------- 1 0.0 1.0 1 10
+ 0.220006 0 1 tcp 1040 ------- 1 0.0 1.0 2 11
r 0.220006 2 1 ack 40 ------- 1 2.0 1.1 0 6
+ 0.220006 1 2 tcp 1040 ------- 1 1.1 2.0 1 12
- 0.220006 1 2 tcp 1040 ------- 1 1.1 2.0 1 12
+ 0.220006 1 2 tcp 1040 ------- 1 1.1 2.0 2 13
r 0.220006 3 2 ack 40 ------- 1 3.0 2.1 0 7
+ 0.220006 2 3 tcp 1040 ------- 1 2.1 3.0 1 14
- 0.220006 2 3 tcp 1040 ------- 1 2.1 3.0 1 14
+ 0.220006 2 3 tcp 1040 ------- 1 2.1 3.0 2 15
r 0.220006 4 3 ack 40 ------- 1 4.0 3.1 0 8
+ 0.220006 3 4 tcp 1040 ------- 1 3.1 4.0 1 16
- 0.220006 3 4 tcp 1040 ------- 1 3.1 4.0 1 16
+ 0.220006 3 4 tcp 1040 ------- 1 3.1 4.0 2 17
r 0.220006 0 4 ack 40 ------- 1 0.1 4.1 0 9
+ 0.220006 4 0 tcp 1040 ------- 1 4.1 0.1 1 18
- 0.220006 4 0 tcp 1040 ------- 1 4.1 0.1 1 18
+ 0.220006 4 0 tcp 1040 ------- 1 4.1 0.1 2 19
- 0.22009 0 1 tcp 1040 ------- 1 0.0 1.0 2 11
- 0.22009 1 2 tcp 1040 ------- 1 1.1 2.0 2 13
- 0.22009 2 3 tcp 1040 ------- 1 2.1 3.0 2 15
- 0.22009 3 4 tcp 1040 ------- 1 3.1 4.0 2 17
- 0.22009 4 0 tcp 1040 ------- 1 4.1 0.1 2 19
r 0.23009 0 1 tcp 1040 ------- 1 0.0 1.0 1 10
+ 0.23009 1 0 ack 40 ------- 1 1.0 0.0 1 20
- 0.23009 1 0 ack 40 ------- 1 1.0 0.0 1 20
r 0.23009 1 2 tcp 1040 ------- 1 1.1 2.0 1 12
+ 0.23009 2 1 ack 40 ------- 1 2.0 1.1 1 21
- 0.23009 2 1 ack 40 ------- 1 2.0 1.1 1 21
r 0.23009 2 3 tcp 1040 ------- 1 2.1 3.0 1 14
+ 0.23009 3 2 ack 40 ------- 1 3.0 2.1 1 22
- 0.23009 3 2 ack 40 ------- 1 3.0 2.1 1 22
r 0.23009 3 4 tcp 1040 ------- 1 3.1 4.0 1 16
+ 0.23009 4 3 ack 40 ------- 1 4.0 3.1 1 23
- 0.23009 4 3 ack 40 ------- 1 4.0 3.1 1 23
r 0.23009 4 0 tcp 1040 ------- 1 4.1 0.1 1 18
+ 0.23009 0 4 ack 40 ------- 1 0.1 4.1 1 24
- 0.23009 0 4 ack 40 ------- 1 0.1 4.1 1 24
r 0.230173 0 1 tcp 1040 ------- 1 0.0 1.0 2 11
+ 0.230173 1 0 ack 40 ------- 1 1.0 0.0 2 25
- 0.230173 1 0 ack 40 ------- 1 1.0 0.0 2 25
r 0.230173 1 2 tcp 1040 ------- 1 1.1 2.0 2 13
+ 0.230173 2 1 ack 40 ------- 1 2.0 1.1 2 26
- 0.230173 2 1 ack 40 ------- 1 2.0 1.1 2 26
r 0.230173 2 3 tcp 1040 ------- 1 2.1 3.0 2 15
+ 0.230173 3 2 ack 40 ------- 1 3.0 2.1 2 27
- 0.230173 3 2 ack 40 ------- 1 3.0 2.1 2 27
r 0.230173 3 4 tcp 1040 ------- 1 3.1 4.0 2 17
+ 0.230173 4 3 ack 40 ------- 1 4.0 3.1 2 28
- 0.230173 4 3 ack 40 ------- 1 4.0 3.1 2 28
r 0.230173 4 0 tcp 1040 ------- 1 4.1 0.1 2 19
+ 0.230173 0 4 ack 40 ------- 1 0.1 4.1 2 29
- 0.230173 0 4 ack 40 ------- 1 0.1 4.1 2 29
r 0.240093 1 0 ack 40 ------- 1 1.0 0.0 1 20
+ 0.240093 0 1 tcp 1040 ------- 1 0.0 1.0 3 30
- 0.240093 0 1 tcp 1040 ------- 1 0.0 1.0 3 30
+ 0.240093 0 1 tcp 1040 ------- 1 0.0 1.0 4 31
r 0.240093 2 1 ack 40 ------- 1 2.0 1.1 1 21
+ 0.240093 1 2 tcp 1040 ------- 1 1.1 2.0 3 32
- 0.240093 1 2 tcp 1040 ------- 1 1.1 2.0 3 32
+ 0.240093 1 2 tcp 1040 ------- 1 1.1 2.0 4 33
r 0.240093 3 2 ack 40 ------- 1 3.0 2.1 1 22
+ 0.240093 2 3 tcp 1040 ------- 1 2.1 3.0 3 34
- 0.240093 2 3 tcp 1040 ------- 1 2.1 3.0 3 34
+ 0.240093 2 3 tcp 1040 ------- 1 2.1 3.0 4 35
r 0.240093 4 3 ack 40 ------- 1 4.0 3.1 1 23
+ 0.240093 3 4 tcp 1040 ------- 1 3.1 4.0 3 36
- 0.240093 3 4 tcp 1040 ------- 1 3.1 4.0 3 36
+ 0.240093 3 4 tcp 1040 ------- 1 3.1 4.0 4 37
r 0.240093 0 4 ack 40 ------- 1 0.1 4.1 1 24
+ 0.240093 4 0 tcp 1040 ------- 1 4.1 0.1 3 38
- 0.240093 4 0 tcp 1040 ------- 1 4.1 0.1 3 38
+ 0.240093 4 0 tcp 1040 ------- 1 4.1 0.1 4 39
r 0.240176 1 0 ack 40 ------- 1 1.0 0.0 2 25
+ 0.240176 0 1 tcp 1040 ------- 1 0.0 1.0 5 40
+ 0.240176 0 1 tcp 1040 ------- 1 0.0 1.0 6 41
r 0.240176 2 1 ack 40 ------- 1 2.0 1.1 2 26
+ 0.240176 1 2 tcp 1040 ------- 1 1.1 2.0 5 42
+ 0.240176 1 2 tcp 1040 ------- 1 1.1 2.0 6 43
r 0.240176 3 2 ack 40 ------- 1 3.0 2.1 2 27
+ 0.240176 2 3 tcp 1040 ------- 1 2.1 3.0 5 44
+ 0.240176 2 3 tcp 1040 ------- 1 2.1 3.0 6 45
r 0.240176 4 3 ack 40 ------- 1 4.0 3.1 2 28
+ 0.240176 3 4 tcp 1040 ------- 1 3.1 4.0 5 46
+ 0.240176 3 4 tcp 1040 ------- 1 3.1 4.0 6 47
r 0.240176 0 4 ack 40 ------- 1 0.1 4.1 2 29
+ 0.240176 4 0 tcp 1040 ------- 1 4.1 0.1 5 48
+ 0.240176 4 0 tcp 1040 ------- 1 4.1 0.1 6 49
- 0.240176 0 1 tcp 1040 ------- 1 0.0 1.0 4 31
- 0.240176 1 2 tcp 1040 ------- 1 1.1 2.0 4 33
- 0.240176 2 3 tcp 1040 ------- 1 2.1 3.0 4 35
- 0.240176 3 4 tcp 1040 ------- 1 3.1 4.0 4 37
- 0.240176 4 0 tcp 1040 ------- 1 4.1 0.1 4 39
- 0.240259 0 1 tcp 1040 ------- 1 0.0 1.0 5 40
- 0.240259 1 2 tcp 1040 ------- 1 1.1 2.0 5 42
- 0.240259 2 3 tcp 1040 ------- 1 2.1 3.0 5 44
- 0.240259 3 4 tcp 1040 ------- 1 3.1 4.0 5 46
- 0.240259 4 0 tcp 1040 ------- 1 4.1 0.1 5 48
- 0.240342 0 1 tcp 1040 ------- 1 0.0 1.0 6 41
- 0.240342 1 2 tcp 1040 ------- 1 1.1 2.0 6 43
- 0.240342 2 3 tcp 1040 ------- 1 2.1 3.0 6 45
- 0.240342 3 4 tcp 1040 ------- 1 3.1 4.0 6 47
- 0.240342 4 0 tcp 1040 ------- 1 4.1 0.1 6 49
r 0.250176 0 1 tcp 1040 ------- 1 0.0 1.0 3 30
+ 0.250176 1 0 ack 40 ------- 1 1.0 0.0 3 50
- 0.250176 1 0 ack 40 ------- 1 1.0 0.0 3 50
r 0.250176 1 2 tcp 1040 ------- 1 1.1 2.0 3 32
+ 0.250176 2 1 ack 40 ------- 1 2.0 1.1 3 51
- 0.250176 2 1 ack 40 ------- 1 2.0 1.1 3 51
r 0.250176 2 3 tcp 1040 ------- 1 2.1 3.0 3 34
+ 0.250176 3 2 ack 40 ------- 1 3.0 2.1 3 52
- 0.250176 3 2 ack 40 ------- 1 3.0 2.1 3 52
r 0.250176 3 4 tcp 1040 ------- 1 3.1 4.0 3 36
+ 0.250176 4 3 ack 40 ------- 1 4.0 3.1 3 53
- 0.250176 4 3 ack 40 ------- 1 4.0 3.1 3 53
r 0.250176 4 0 tcp 1040 ------- 1 4.1 0.1 3 38
+ 0.250176 0 4 ack 40 ------- 1 0.1 4.1 3 54
- 0.250176 0 4 ack 40 ------- 1 0.1 4.1 3 54
r 0.250259 0 1 tcp 1040 ------- 1 0.0 1.0 4 31
+ 0.250259 1 0 ack 40 ------- 1 1.0 0.0 4 55
- 0.250259 1 0 ack 40 ------- 1 1.0 0.0 4 55
r 0.250259 1 2 tcp 1040 ------- 1 1.1 2.0 4 33
+ 0.250259 2 1 ack 40 ------- 1 2.0 1.1 4 56
- 0.250259 2 1 ack 40 ------- 1 2.0 1.1 4 56
r 0.250259 2 3 tcp 1040 ------- 1 2.1 3.0 4 35
+ 0.250259 3 2 ack 40 ------- 1 3.0 2.1 4 57
- 0.250259 3 2 ack 40 ------- 1 3.0 2.1 4 57
r 0.250259 3 4 tcp 1040 ------- 1 3.1 4.0 4 37
+ 0.250259 4 3 ack 40 ------- 1 4.0 3.1 4 58
- 0.250259 4 3 ack 40 ------- 1 4.0 3.1 4 58
r 0.250259 4 0 tcp 1040 ------- 1 4.1 0.1 4 39
+ 0.250259 0 4 ack 40 ------- 1 0.1 4.1 4 59
- 0.250259 0 4 ack 40 ------- 1 0.1 4.1 4 59
r 0.250342 0 1 tcp 1040 ------- 1 0.0 1.0 5 40
+ 0.250342 1 0 ack 40 ------- 1 1.0 0.0 5 60
- 0.250342 1 0 ack 40 ------- 1 1.0 0.0 5 60
r 0.250342 1 2 tcp 1040 ------- 1 1.1 2.0 5 42
+ 0.250342 2 1 ack 40 ------- 1 2.0 1.1 5 61
- 0.250342 2 1 ack 40 ------- 1 2.0 1.1 5 61
r 0.250342 2 3 tcp 1040 ------- 1 2.1 3.0 5 44
+ 0.250342 3 2 ack 40 ------- 1 3.0 2.1 5 62
- 0.250342 3 2 ack 40 ------- 1 3.0 2.1 5 62
r 0.250342 3 4 tcp 1040 ------- 1 3.1 4.0 5 46
+ 0.250342 4 3 ack 40 ------- 1 4.0 3.1 5 63
- 0.250342 4 3 ack 40 ------- 1 4.0 3.1 5 63
r 0.250342 4 0 tcp 1040 ------- 1 4.1 0.1 5 48
+ 0.250342 0 4 ack 40 ------- 1 0.1 4.1 5 64
- 0.250342 0 4 ack 40 ------- 1 0.1 4.1 5 64
r 0.250426 0 1 tcp 1040 ------- 1 0.0 1.0 6 41
+ 0.250426 1 0 ack 40 ------- 1 1.0 0.0 6 65
- 0.250426 1 0 ack 40 ------- 1 1.0 0.0 6 65
r 0.250426 1 2 tcp 1040 ------- 1 1.1 2.0 6 43
+ 0.250426 2 1 ack 40 ------- 1 2.0 1.1 6 66
- 0.250426 2 1 ack 40 ------- 1 2.0 1.1 6 66
r 0.250426 2 3 tcp 1040 ------- 1 2.1 3.0 6 45
+ 0.250426 3 2 ack 40 ------- 1 3.0 2.1 6 67
- 0.250426 3 2 ack 40 ------- 1 3.0 2.1 6 67
r 0.250426 3 4 tcp 1040 ------- 1 3.1 4.0 6 47
+ 0.250426 4 3 ack 40 ------- 1 4.0 3.1 6 68
- 0.250426 4 3 ack 40 ------- 1 4.0 3.1 6 68
r 0.250426 4 0 tcp 1040 ------- 1 4.1 0.1 6 49
+ 0.250426 0 4 ack 40 ------- 1 0.1 4.1 6 69
- 0.250426 0 4 ack 40 ------- 1 0.1 4.1 6 69
r 0.260179 1 0 ack 40 ------- 1 1.0 0.0 3 50
+ 0.260179 0 1 tcp 1040 ------- 1 0.0 1.0 7 70
- 0.260179 0 1 tcp 1040 ------- 1 0.0 1.0 7 70
+ 0.260179 0 1 tcp 1040 ------- 1 0.0 1.0 8 71
r 0.260179 2 1 ack 40 ------- 1 2.0 1.1 3 51
+ 0.260179 1 2 tcp 1040 ------- 1 1.1 2.0 7 72
- 0.260179 1 2 tcp 1040 ------- 1 1.1 2.0 7 72
+ 0.260179 1 2 tcp 1040 ------- 1 1.1 2.0 8 73
r 0.260179 3 2 ack 40 ------- 1 3.0 2.1 3 52
+ 0.260179 2 3 tcp 1040 ------- 1 2.1 3.0 7 74
- 0.260179 2 3 tcp 1040 ------- 1 2.1 3.0 7 74
+ 0.260179 2 3 tcp 1040 ------- 1 2.1 3.0 8 75
r 0.260179 4 3 ack 40 ------- 1 4.0 3.1 3 53
+ 0.260179 3 4 tcp 1040 ------- 1 3.1 4.0 7 76
- 0.260179 3 4 tcp 1040 ------- 1 3.1 4.0 7 76
+ 0.260179 3 4 tcp 1040 ------- 1 3.1 4.0 8 77
r 0.260179 0 4 ack 40 ------- 1 0.1 4.1 3 54
+ 0.260179 4 0 tcp 1040 ------- 1 4.1 0.1 7 78
- 0.260179 4 0 tcp 1040 ------- 1 4.1 0.1 7 78
+ 0.260179 4 0 tcp 1040 ------- 1 4.1 0.1 8 79
r 0.260262 1 0 ack 40 ------- 1 1.0 0.0 4 55
+ 0.260262 0 1 tcp 1040 ------- 1 0.0 1.0 9 80
+ 0.260262 0 1 tcp 1040 ------- 1 0.0 1.0 10 81
r 0.260262 2 1 ack 40 ------- 1 2.0 1.1 4 56
+ 0.260262 1 2 tcp 1040 ------- 1 1.1 2.0 9 82
+ 0.260262 1 2 tcp 1040 ------- 1 1.1 2.0 10 83
r 0.260262 3 2 ack 40 ------- 1 3.0 2.1 4 57
+ 0.260262 2 3 tcp 1040 ------- 1 2.1 3.0 9 84
+ 0.260262 2 3 tcp 1040 ------- 1 2.1 3.0 10 85
r 0.260262 4 3 ack 40 ------- 1 4.0 3.1 4 58
+ 0.260262 3 4 tcp 1040 ------- 1 3.1 4.0 9 86
+ 0.260262 3 4 tcp 1040 ------- 1 3.1 4.0 10 87
r 0.260262 0 4 ack 40 ------- 1 0.1 4.1 4 59
+ 0.260262 4 0 tcp 1040 ------- 1 4.1 0.1 9 88
+ 0.260262 4 0 tcp 1040 ------- 1 4.1 0.1 10 89
- 0.260262 0 1 tcp 1040 ------- 1 0.0 1.0 8 71
- 0.260262 1 2 tcp 1040 ------- 1 1.1 2.0 8 73
- 0.260262 2 3 tcp 1040 ------- 1 2.1 3.0 8 75
- 0.260262 3 4 tcp 1040 ------- 1 3.1 4.0 8 77
- 0.260262 4 0 tcp 1040 ------- 1 4.1 0.1 8 79
r 0.260346 1 0 ack 40 ------- 1 1.0 0.0 5 60
+ 0.260346 0 1 tcp 1040 ------- 1 0.0 1.0 11 90
+ 0.260346 0 1 tcp 1040 ------- 1 0.0 1.0 12 91
r 0.260346 2 1 ack 40 ------- 1 2.0 1.1 5 61
+ 0.260346 1 2 tcp 1040 ------- 1 1.1 2.0 11 92
+ 0.260346 1 2 tcp 1040 ------- 1 1.1 2.0 12 93
r 0.260346 3 2 ack 40 ------- 1 3.0 2.1 5 62
+ 0.260346 2 3 tcp 1040 ------- 1 2.1 3.0 11 94
+ 0.260346 2 3 tcp 1040 ------- 1 2.1 3.0 12 95
r 0.260346 4 3 ack 40 ------- 1 4.0 3.1 5 63
+ 0.260346 3 4 tcp 1040 ------- 1 3.1 4.0 11 96
+ 0.260346 3 4 tcp 1040 ------- 1 3.1 4.0 12 97
r 0.260346 0 4 ack 40 ------- 1 0.1 4.1 5 64
+ 0.260346 4 0 tcp 1040 ------- 1 4.1 0.1 11 98
+ 0.260346 4 0 tcp 1040 ------- 1 4.1 0.1 12 99
- 0.260346 0 1 tcp 1040 ------- 1 0.0 1.0 9 80
- 0.260346 1 2 tcp 1040 ------- 1 1.1 2.0 9 82
- 0.260346 2 3 tcp 1040 ------- 1 2.1 3.0 9 84
- 0.260346 3 4 tcp 1040 ------- 1 3.1 4.0 9 86
- 0.260346 4 0 tcp 1040 ------- 1 4.1 0.1 9 88
r 0.260429 1 0 ack 40 ------- 1 1.0 0.0 6 65
+ 0.260429 0 1 tcp 1040 ------- 1 0.0 1.0 13 100
+ 0.260429 0 1 tcp 1040 ------- 1 0.0 1.0 14 101
d 0.260429 0 1 tcp 1040 ------- 1 0.0 1.0 14 101
r 0.260429 2 1 ack 40 ------- 1 2.0 1.1 6 66
+ 0.260429 1 2 tcp 1040 ------- 1 1.1 2.0 13 102
+ 0.260429 1 2 tcp 1040 ------- 1 1.1 2.0 14 103
d 0.260429 1 2 tcp 1040 ------- 1 1.1 2.0 14 103
r 0.260429 3 2 ack 40 ------- 1 3.0 2.1 6 67
+ 0.260429 2 3 tcp 1040 ------- 1 2.1 3.0 13 104
+ 0.260429 2 3 tcp 1040 ------- 1 2.1 3.0 14 105
d 0.260429 2 3 tcp 1040 ------- 1 2.1 3.0 14 105
r 0.260429 4 3 ack 40 ------- 1 4.0 3.1 6 68
+ 0.260429 3 4 tcp 1040 ------- 1 3.1 4.0 13 106
+ 0.260429 3 4 tcp 1040 ------- 1 3.1 4.0 14 107
d 0.260429 3 4 tcp 1040 ------- 1 3.1 4.0 14 107
r 0.260429 0 4 ack 40 ------- 1 0.1 4.1 6 69
+ 0.260429 4 0 tcp 1040 ------- 1 4.1 0.1 13 108
+ 0.260429 4 0 tcp 1040 ------- 1 4.1 0.1 14 109
d 0.260429 4 0 tcp 1040 ------- 1 4.1 0.1 14 109
- 0.260429 0 1 tcp 1040 ------- 1 0.0 1.0 10 81
- 0.260429 1 2 tcp 1040 ------- 1 1.1 2.0 10 83
- 0.260429 2 3 tcp 1040 ------- 1 2.1 3.0 10 85
- 0.260429 3 4 tcp 1040 ------- 1 3.1 4.0 10 87
- 0.260429 4 0 tcp 1040 ------- 1 4.1 0.1 10 89
- 0.260512 0 1 tcp 1040 ------- 1 0.0 1.0 11 90
- 0.260512 1 2 tcp 1040 ------- 1 1.1 2.0 11 92
- 0.260512 2 3 tcp 1040 ------- 1 2.1 3.0 11 94
- 0.260512 3 4 tcp 1040 ------- 1 3.1 4.0 11 96
- 0.260512 4 0 tcp 1040 ------- 1 4.1 0.1 11 98
- 0.260595 0 1 tcp 1040 ------- 1 0.0 1.0 12 91
- 0.260595 1 2 tcp 1040 ------- 1 1.1 2.0 12 93
- 0.260595 2 3 tcp 1040 ------- 1 2.1 3.0 12 95
- 0.260595 3 4 tcp 1040 ------- 1 3.1 4.0 12 97
- 0.260595 4 0 tcp 1040 ------- 1 4.1 0.1 12 99
- 0.260678 0 1 tcp 1040 ------- 1 0.0 1.0 13 100
- 0.260678 1 2 tcp 1040 ------- 1 1.1 2.0 13 102
- 0.260678 2 3 tcp 1040 ------- 1 2.1 3.0 13 104
- 0.260678 3 4 tcp 1040 ------- 1 3.1 4.0 13 106
- 0.260678 4 0 tcp 1040 ------- 1 4.1 0.1 13 108
r 0.270262 0 1 tcp 1040 ------- 1 0.0 1.0 7 70
+ 0.270262 1 0 ack 40 ------- 1 1.0 0.0 7 110
- 0.270262 1 0 ack 40 ------- 1 1.0 0.0 7 110
r 0.270262 1 2 tcp 1040 ------- 1 1.1 2.0 7 72
+ 0.270262 2 1 ack 40 ------- 1 2.0 1.1 7 111
- 0.270262 2 1 ack 40 ------- 1 2.0 1.1 7 111
r 0.270262 2 3 tcp 1040 ------- 1 2.1 3.0 7 74
+ 0.270262 3 2 ack 40 ------- 1 3.0 2.1 7 112
- 0.270262 3 2 ack 40 ------- 1 3.0 2.1 7 112
r 0.270262 3 4 tcp 1040 ------- 1 3.1 4.0 7 76
+ 0.270262 4 3 ack 40 ------- 1 4.0 3.1 7 113
- 0.270262 4 3 ack 40 ------- 1 4.0 3.1 7 113
r 0.270262 4 0 tcp 1040 ------- 1 4.1 0.1 7 78
+ 0.270262 0 4 ack 40 ------- 1 0.1 4.1 7 114
- 0.270262 0 4 ack 40 ------- 1 0.1 4.1 7 114
r 0.270346 0 1 tcp 1040 ------- 1 0.0 1.0 8 71
+ 0.270346 1 0 ack 40 ------- 1 1.0 0.0 8 115
- 0.270346 1 0 ack 40 ------- 1 1.0 0.0 8 115
r 0.270346 1 2 tcp 1040 ------- 1 1.1 2.0 8 73
+ 0.270346 2 1 ack 40 ------- 1 2.0 1.1 8 116
- 0.270346 2 1 ack 40 ------- 1 2.0 1.1 8 116
r 0.270346 2 3 tcp 1040 ------- 1 2.1 3.0 8 75
+ 0.270346 3 2 ack 40 ------- 1 3.0 2.1 8 117
- 0.270346 3 2 ack 40 ------- 1 3.0 2.1 8 117
r 0.270346 3 4 tcp 1040 ------- 1 3.1 4.0 8 77
+ 0.270346 4 3 ack 40 ------- 1 4.0 3.1 8 118
- 0.270346 4 3 ack 40 ------- 1 4.0 3.1 8 118
r 0.270346 4 0 tcp 1040 ------- 1 4.1 0.1 8 79
+ 0.270346 0 4 ack 40 ------- 1 0.1 4.1 8 119
- 0.270346 0 4 ack 40 ------- 1 0.1 4.1 8 119
r 0.270429 0 1 tcp 1040 ------- 1 0.0 1.0 9 80
+ 0.270429 1 0 ack 40 ------- 1 1.0 0.0 9 120
- 0.270429 1 0 ack 40 ------- 1 1.0 0.0 9 120
r 0.270429 1 2 tcp 1040 ------- 1 1.1 2.0 9 82
+ 0.270429 2 1 ack 40 ------- 1 2.0 1.1 9 121
- 0.270429 2 1 ack 40 ------- 1 2.0 1.1 9 121
r 0.270429 2 3 tcp 1040 ------- 1 2.1 3.0 9 84
+ 0.270429 3 2 ack 40 ------- 1 3.0 2.1 9 122
- 0.270429 3 2 ack 40 ------- 1 3.0 2.1 9 122
r 0.270429 3 4 tcp 1040 ------- 1 3.1 4.0 9 86
+ 0.270429 4 3 ack 40 ------- 1 4.0 3.1 9 123
- 0.270429 4 3 ack 40 ------- 1 4.0 3.1 9 123
r 0.270429 4 0 tcp 1040 ------- 1 4.1 0.1 9 88
+ 0.270429 0 4 ack 40 ------- 1 0.1 4.1 9 124
- 0.270429 0 4 ack 40 ------- 1 0.1 4.1 9 124
r 0.270512 0 1 tcp 1040 ------- 1 0.0 1.0 10 81
+ 0.270512 1 0 ack 40 ------- 1 1.0 0.0 10 125
- 0.270512 1 0 ack 40 ------- 1 1.0 0.0 10 125
r 0.270512 1 2 tcp 1040 ------- 1 1.1 2.0 10 83
+ 0.270512 2 1 ack 40 ------- 1 2.0 1.1 10 126
- 0.270512 2 1 ack 40 ------- 1 2.0 1.1 10 126
r 0.270512 2 3 tcp 1040 ------- 1 2.1 3.0 10 85
+ 0.270512 3 2 ack 40 ------- 1 3.0 2.1 10 127
- 0.270512 3 2 ack 40 ------- 1 3.0 2.1 10 127
r 0.270512 3 4 tcp 1040 ------- 1 3.1 4.0 10 87
+ 0.270512 4 3 ack 40 ------- 1 4.0 3.1 10 128
- 0.270512 4 3 ack 40 ------- 1 4.0 3.1 10 128
r 0.270512 4 0 tcp 1040 ------- 1 4.1 0.1 10 89
+ 0.270512 0 4 ack 40 ------- 1 0.1 4.1 10 129
- 0.270512 0 4 ack 40 ------- 1 0.1 4.1 10 129
r 0.270595 0 1 tcp 1040 ------- 1 0.0 1.0 11 90
+ 0.270595 1 0 ack 40 ------- 1 1.0 0.0 11 130
- 0.270595 1 0 ack 40 ------- 1 1.0 0.0 11 130
r 0.270595 1 2 tcp 1040 ------- 1 1.1 2.0 11 92
+ 0.270595 2 1 ack 40 ------- 1 2.0 1.1 11 131
- 0.270595 2 1 ack 40 ------- 1 2.0 1.1 11 131
r 0.270595 2 3 tcp 1040 ------- 1 2.1 3.0 11 94
+ 0.270595 3 2 ack 40 ------- 1 3.0 2.1 11 132
- 0.270595 3 2 ack 40 ------- 1 3.0 2.1 11 132
r 0.270595 3 4 tcp 1040 ------- 1 3.1 4.0 11 96
+ 0.270595 4 3 ack 40 ------- 1 4.0 3.1 11 133
- 0.270595 4 3 ack 40 ------- 1 4.0 3.1 11 133
r 0.270595 4 0 tcp 1040 ------- 1 4.1 0.1 11 98
+ 0.270595 0 4 ack 40 ------- 1 0.1 4.1 11 134
- 0.270595 0 4 ack 40 ------- 1 0.1 4.1 11 134
r 0.270678 0 1 tcp 1040 ------- 1 0.0 1.0 12 91
+ 0.270678 1 0 ack 40 ------- 1 1.0 0.0 12 135
- 0.270678 1 0 ack 40 ------- 1 1.0 0.0 12 135
r 0.270678 1 2 tcp 1040 ------- 1 1.1 2.0 12 93
+ 0.270678 2 1 ack 40 ------- 1 2.0 1.1 12 136
- 0.270678 2 1 ack 40 ------- 1 2.0 1.1 12 136
r 0.270678 2 3 tcp 1040 ------- 1 2.1 3.0 12 95
+ 0.270678 3 2 ack 40 ------- 1 3.0 2.1 12 137
- 0.270678 3 2 ack 40 ------- 1 3.0 2.1 12 137
r 0.270678 3 4 tcp 1040 ------- 1 3.1 4.0 12 97
+ 0.270678 4 3 ack 40 ------- 1 4.0 3.1 12 138
- 0.270678 4 3 ack 40 ------- 1 4.0 3.1 12 138
r 0.270678 4 0 tcp 1040 ------- 1 4.1 0.1 12 99
+ 0.270678 0 4 ack 40 ------- 1 0.1 4.1 12 139
- 0.270678 0 4 ack 40 ------- 1 0.1 4.1 12 139
r 0.270762 0 1 tcp 1040 ------- 1 0.0 1.0 13 100
+ 0.270762 1 0 ack 40 ------- 1 1.0 0.0 13 140
- 0.270762 1 0 ack 40 ------- 1 1.0 0.0 13 140
r 0.270762 1 2 tcp 1040 ------- 1 1.1 2.0 13 102
+ 0.270762 2 1 ack 40 ------- 1 2.0 1.1 13 141
- 0.270762 2 1 ack 40 ------- 1 2.0 1.1 13 141
r 0.270762 2 3 tcp 1040 ------- 1 2.1 3.0 13 104
+ 0.270762 3 2 ack 40 ------- 1 3.0 2.1 13 142
- 0.270762 3 2 ack 40 ------- 1 3.0 2.1 13 142
r 0.270762 3 4 tcp 1040 ------- 1 3.1 4.0 13 106
+ 0.270762 4 3 ack 40 ------- 1 4.0 3.1 13 143
- 0.270762 4 3 ack 40 ------- 1 4.0 3.1 13 143
r 0.270762 4 0 tcp 1040 ------- 1 4.1 0.1 13 108
+ 0.270762 0 4 ack 40 ------- 1 0.1 4.1 13 144
- 0.270762 0 4 ack 40 ------- 1 0.1 4.1 13 144
r 0.280266 1 0 ack 40 ------- 1 1.0 0.0 7 110
+ 0.280266 0 1 tcp 1040 ------- 1 0.0 1.0 15 145
- 0.280266 0 1 tcp 1040 ------- 1 0.0 1.0 15 145
+ 0.280266 0 1 tcp 1040 ------- 1 0.0 1.0 16 146
r 0.280266 2 1 ack 40 ------- 1 2.0 1.1 7 111
+ 0.280266 1 2 tcp 1040 ------- 1 1.1 2.0 15 147
- 0.280266 1 2 tcp 1040 ------- 1 1.1 2.0 15 147
+ 0.280266 1 2 tcp 1040 ------- 1 1.1 2.0 16 148
r 0.280266 3 2 ack 40 ------- 1 3.0 2.1 7 112
+ 0.280266 2 3 tcp 1040 ------- 1 2.1 3.0 15 149
- 0.280266 2 3 tcp 1040 ------- 1 2.1 3.0 15 149
+ 0.280266 2 3 tcp 1040 ------- 1 2.1 3.0 16 150
r 0.280266 4 3 ack 40 ------- 1 4.0 3.1 7 113
+ 0.280266 3 4 tcp 1040 ------- 1 3.1 4.0 15 151
- 0.280266 3 4 tcp 1040 ------- 1 3.1 4.0 15 151
+ 0.280266 3 4 tcp 1040 ------- 1 3.1 4.0 16 152
r 0.280266 0 4 ack 40 ------- 1 0.1 4.1 7 114
+ 0.280266 4 0 tcp 1040 ------- 1 4.1 0.1 15 153
- 0.280266 4 0 tcp 1040 ------- 1 4.1 0.1 15 153
+ 0.280266 4 0 tcp 1040 ------- 1 4.1 0.1 16 154
r 0.280349 1 0 ack 40 ------- 1 1.0 0.0 8 115
+ 0.280349 0 1 tcp 1040 ------- 1 0.0 1.0 17 155
+ 0.280349 0 1 tcp 1040 ------- 1 0.0 1.0 18 156
r 0.280349 2 1 ack 40 ------- 1 2.0 1.1 8 116
+ 0.280349 1 2 tcp 1040 ------- 1 1.1 2.0 17 157
+ 0.280349 1 2 tcp 1040 ------- 1 1.1 2.0 18 158
r 0.280349 3 2 ack 40 ------- 1 3.0 2.1 8 117
+ 0.280349 2 3 tcp 1040 ------- 1 2.1 3.0 17 159
+ 0.280349 2 3 tcp 1040 ------- 1 2.1 3.0 18 160
r 0.280349 4 3 ack 40 ------- 1 4.0 3.1 8 118
+ 0.280349 3 4 tcp 1040 ------- 1 3.1 4.0 17 161
+ 0.280349 3 4 tcp 1040 ------- 1 3.1 4.0 18 162
r 0.280349 0 4 ack 40 ------- 1 0.1 4.1 8 119
+ 0.280349 4 0 tcp 1040 ------- 1 4.1 0.1 17 163
+ 0.280349 4 0 tcp 1040 ------- 1 4.1 0.1 18 164
- 0.280349 0 1 tcp 1040 ------- 1 0.0 1.0 16 146
- 0.280349 1 2 tcp 1040 ------- 1 1.1 2.0 16 148
- 0.280349 2 3 tcp 1040 ------- 1 2.1 3.0 16 150
- 0.280349 3 4 tcp 1040 ------- 1 3.1 4.0 16 152
- 0.280349 4 0 tcp 1040 ------- 1 4.1 0.1 16 154
r 0.280432 1 0 ack 40 ------- 1 1.0 0.0 9 120
+ 0.280432 0 1 tcp 1040 ------- 1 0.0 1.0 19 165
+ 0.280432 0 1 tcp 1040 ------- 1 0.0 1.0 20 166
r 0.280432 2 1 ack 40 ------- 1 2.0 1.1 9 121
+ 0.280432 1 2 tcp 1040 ------- 1 1.1 2.0 19 167
+ 0.280432 1 2 tcp 1040 ------- 1 1.1 2.0 20 168
r 0.280432 3 2 ack 40 ------- 1 3.0 2.1 9 122
+ 0.280432 2 3 tcp 1040 ------- 1 2.1 3.0 19 169
+ 0.280432 2 3 tcp 1040 ------- 1 2.1 3.0 20 170
r 0.280432 4 3 ack 40 ------- 1 4.0 3.1 9 123
+ 0.280432 3 4 tcp 1040 ------- 1 3.1 4.0 19 171
+ 0.280432 3 4 tcp 1040 ------- 1 3.1 4.0 20 172
r 0.280432 0 4 ack 40 ------- 1 0.1 4.1 9 124
+ 0.280432 4 0 tcp 1040 ------- 1 4.1 0.1 19 173
+ 0.280432 4 0 tcp 1040 ------- 1 4.1 0.1 20 174
- 0.280432 0 1 tcp 1040 ------- 1 0.0 1.0 17 155
- 0.280432 1 2 tcp 1040 ------- 1 1.1 2.0 17 157
- 0.280432 2 3 tcp 1040 ------- 1 2.1 3.0 17 159
- 0.280432 3 4 tcp 1040 ------- 1 3.1 4.0 17 161
- 0.280432 4 0 tcp 1040 ------- 1 4.1 0.1 17 163
r 0.280515 1 0 ack 40 ------- 1 1.0 0.0 10 125
+ 0.280515 0 1 tcp 1040 ------- 1 0.0 1.0 21 175
+ 0.280515 0 1 tcp 1040 ------- 1 0.0 1.0 22 176
d 0.280515 0 1 tcp 1040 ------- 1 0.0 1.0 22 176
r 0.280515 2 1 ack 40 ------- 1 2.0 1.1 10 126
+ 0.280515 1 2 tcp 1040 ------- 1 1.1 2.0 21 177
+ 0.280515 1 2 tcp 1040 ------- 1 1.1 2.0 22 178
d 0.280515 1 2 tcp 1040 ------- 1 1.1 2.0 22 178
r 0.280515 3 2 ack 40 ------- 1 3.0 2.1 10 127
+ 0.280515 2 3 tcp 1040 ------- 1 2.1 3.0 21 179
+ 0.280515 2 3 tcp 1040 ------- 1 2.1 3.0 22 180
d 0.280515 2 3 tcp 1040 ------- 1 2.1 3.0 22 180
r 0.280515 4 3 ack 40 ------- 1 4.0 3.1 10 128
+ 0.280515 3 4 tcp 1040 ------- 1 3.1 4.0 21 181
+ 0.280515 3 4 tcp 1040 ------- 1 3.1 4.0 22 182
d 0.280515 3 4 tcp 1040 ------- 1 3.1 4.0 22 182
r 0.280515 0 4 ack 40 ------- 1 0.1 4.1 10 129
+ 0.280515 4 0 tcp 1040 ------- 1 4.1 0.1 21 183
+ 0.280515 4 0 tcp 1040 ------- 1 4.1 0.1 22 184
d 0.280515 4 0 tcp 1040 ------- 1 4.1 0.1 22 184
- 0.280515 0 1 tcp 1040 ------- 1 0.0 1.0 18 156
- 0.280515 1 2 tcp 1040 ------- 1 1.1 2.0 18 158
- 0.280515 2 3 tcp 1040 ------- 1 2.1 3.0 18 160
- 0.280515 3 4 tcp 1040 ------- 1 3.1 4.0 18 162
- 0.280515 4 0 tcp 1040 ------- 1 4.1 0.1 18 164
r 0.280598 1 0 ack 40 ------- 1 1.0 0.0 11 130
+ 0.280598 0 1 tcp 1040 ------- 1 0.0 1.0 23 185
+ 0.280598 0 1 tcp 1040 ------- 1 0.0 1.0 24 186
d 0.280598 0 1 tcp 1040 ------- 1 0.0 1.0 24 186
r 0.280598 2 1 ack 40 ------- 1 2.0 1.1 11 131
+ 0.280598 1 2 tcp 1040 ------- 1 1.1 2.0 23 187
+ 0.280598 1 2 tcp 1040 ------- 1 1.1 2.0 24 188
d 0.280598 1 2 tcp 1040 ------- 1 1.1 2.0 24 188
r 0.280598 3 2 ack 40 ------- 1 3.0 2.1 11 132
+ 0.280598 2 3 tcp 1040 ------- 1 2.1 3.0 23 189
+ 0.280598 2 3 tcp 1040 ------- 1 2.1 3.0 24 190
d 0.280598 2 3 tcp 1040 ------- 1 2.1 3.0 24 190
r 0.280598 4 3 ack 40 ------- 1 4.0 3.1 11 133
+ 0.280598 3 4 tcp 1040 ------- 1 3.1 4.0 23 191
+ 0.280598 3 4 tcp 1040 ------- 1 3.1 4.0 24 192
d 0.280598 3 4 tcp 1040 ------- 1 3.1 4.0 24 192
r 0.280598 0 4 ack 40 ------- 1 0.1 4.1 11 134
+ 0.280598 4 0 tcp 1040 ------- 1 4.1 0.1 23 193
+ 0.280598 4 0 tcp 1040 ------- 1 4.1 0.1 24 194
d 0.280598 4 0 tcp 1040 ------- 1 4.1 0.1 24 194
- 0.280598 0 1 tcp 1040 ------- 1 0.0 1.0 19 165
- 0.280598 1 2 tcp 1040 ------- 1 1.1 2.0 19 167
- 0.280598 2 3 tcp 1040 ------- 1 2.1 3.0 19 169
- 0.280598 3 4 tcp 1040 ------- 1 3.1 4.0 19 171
- 0.280598 4 0 tcp 1040 ------- 1 4.1 0.1 19 173
r 0.280682 1 0 ack 40 ------- 1 1.0 0.0 12 135
+ 0.280682 0 1 tcp 1040 ------- 1 0.0 1.0 25 195
+ 0.280682 0 1 tcp 1040 ------- 1 0.0 1.0 26 196
d 0.280682 0 1 tcp 1040 ------- 1 0.0 1.0 26 196
r 0.280682 2 1 ack 40 ------- 1 2.0 1.1 12 136
+ 0.280682 1 2 tcp 1040 ------- 1 1.1 2.0 25 197
+ 0.280682 1 2 tcp 1040 ------- 1 1.1 2.0 26 198
d 0.280682 1 2 tcp 1040 ------- 1 1.1 2.0 26 198
r 0.280682 3 2 ack 40 ------- 1 3.0 2.1 12 137
+ 0.280682 2 3 tcp 1040 ------- 1 2.1 3.0 25 199
+ 0.280682 2 3 tcp 1040 ------- 1 2.1 3.0 26 200
d 0.280682 2 3 tcp 1040 ------- 1 2.1 3.0 26 200
r 0.280682 4 3 ack 40 ------- 1 4.0 3.1 12 138
+ 0.280682 3 4 tcp 1040 ------- 1 3.1 4.0 25 201
+ 0.280682 3 4 tcp 1040 ------- 1 3.1 4.0 26 202
d 0.280682 3 4 tcp 1040 ------- 1 3.1 4.0 26 202
r 0.280682 0 4 ack 40 ------- 1 0.1 4.1 12 139
+ 0.280682 4 0 tcp 1040 ------- 1 4.1 0.1 25 203
+ 0.280682 4 0 tcp 1040 ------- 1 4.1 0.1 26 204
d 0.280682 4 0 tcp 1040 ------- 1 4.1 0.1 26 204
- 0.280682 0 1 tcp 1040 ------- 1 0.0 1.0 20 166
- 0.280682 1 2 tcp 1040 ------- 1 1.1 2.0 20 168
- 0.280682 2 3 tcp 1040 ------- 1 2.1 3.0 20 170
- 0.280682 3 4 tcp 1040 ------- 1 3.1 4.0 20 172
- 0.280682 4 0 tcp 1040 ------- 1 4.1 0.1 20 174
r 0.280765 1 0 ack 40 ------- 1 1.0 0.0 13 140
+ 0.280765 0 1 tcp 1040 ------- 1 0.0 1.0 27 205
+ 0.280765 0 1 tcp 1040 ------- 1 0.0 1.0 28 206
d 0.280765 0 1 tcp 1040 ------- 1 0.0 1.0 28 206
r 0.280765 2 1 ack 40 ------- 1 2.0 1.1 13 141
+ 0.280765 1 2 tcp 1040 ------- 1 1.1 2.0 27 207
+ 0.280765 1 2 tcp 1040 ------- 1 1.1 2.0 28 208
d 0.280765 1 2 tcp 1040 ------- 1 1.1 2.0 28 208
r 0.280765 3 2 ack 40 ------- 1 3.0 2.1 13 142
+ 0.280765 2 3 tcp 1040 ------- 1 2.1 3.0 27 209
+ 0.280765 2 3 tcp 1040 ------- 1 2.1 3.0 28 210
d 0.280765 2 3 tcp 1040 ------- 1 2.1 3.0 28 210
r 0.280765 4 3 ack 40 ------- 1 4.0 3.1 13 143
+ 0.280765 3 4 tcp 1040 ------- 1 3.1 4.0 27 211
+ 0.280765 3 4 tcp 1040 ------- 1 3.1 4.0 28 212
d 0.280765 3 4 tcp 1040 ------- 1 3.1 4.0 28 212
r 0.280765 0 4 ack 40 ------- 1 0.1 4.1 13 144
+ 0.280765 4 0 tcp 1040 ------- 1 4.1 0.1 27 213
+ 0.280765 4 0 tcp 1040 ------- 1 4.1 0.1 28 214
d 0.280765 4 0 tcp 1040 ------- 1 4.1 0.1 28 214
- 0.280765 0 1 tcp 1040 ------- 1 0.0 1.0 21 175
- 0.280765 1 2 tcp 1040 ------- 1 1.1 2.0 21 177
- 0.280765 2 3 tcp 1040 ------- 1 2.1 3.0 21 179
- 0.280765 3 4 tcp 1040 ------- 1 3.1 4.0 21 181
- 0.280765 4 0 tcp 1040 ------- 1 4.1 0.1 21 183
- 0.280848 0 1 tcp 1040 ------- 1 0.0 1.0 23 185
- 0.280848 1 2 tcp 1040 ------- 1 1.1 2.0 23 187
- 0.280848 2 3 tcp 1040 ------- 1 2.1 3.0 23 189
- 0.280848 3 4 tcp 1040 ------- 1 3.1 4.0 23 191
- 0.280848 4 0 tcp 1040 ------- 1 4.1 0.1 23 193
- 0.280931 0 1 tcp 1040 ------- 1 0.0 1.0 25 195
- 0.280931 1 2 tcp 1040 ------- 1 1.1 2.0 25 197
- 0.280931 2 3 tcp 1040 ------- 1 2.1 3.0 25 199
- 0.280931 3 4 tcp 1040 ------- 1 3.1 4.0 25 201
- 0.280931 4 0 tcp 1040 ------- 1 4.1 0.1 25 203
- 0.281014 0 1 tcp 1040 ------- 1 0.0 1.0 27 205
- 0.281014 1 2 tcp 1040 ------- 1 1.1 2.0 27 207
- 0.281014 2 3 tcp 1040 ------- 1 2.1 3.0 27 209
- 0.281014 3 4 tcp 1040 ------- 1 3.1 4.0 27 211
- 0.281014 4 0 tcp 1040 ------- 1 4.1 0.1 27 213
r 0.290349 0 1 tcp 1040 ------- 1 0.0 1.0 15 145
+ 0.290349 1 0 ack 40 ------- 1 1.0 0.0 13 215
- 0.290349 1 0 ack 40 ------- 1 1.0 0.0 13 215
r 0.290349 1 2 tcp 1040 ------- 1 1.1 2.0 15 147
+ 0.290349 2 1 ack 40 ------- 1 2.0 1.1 13 216
- 0.290349 2 1 ack 40 ------- 1 2.0 1.1 13 216
r 0.290349 2 3 tcp 1040 ------- 1 2.1 3.0 15 149
+ 0.290349 3 2 ack 40 ------- 1 3.0 2.1 13 217
- 0.290349 3 2 ack 40 ------- 1 3.0 2.1 13 217
r 0.290349 3 4 tcp 1040 ------- 1 3.1 4.0 15 151
+ 0.290349 4 3 ack 40 ------- 1 4.0 3.1 13 218
- 0.290349 4 3 ack 40 ------- 1 4.0 3.1 13 218
r 0.290349 4 0 tcp 1040 ------- 1 4.1 0.1 15 153
+ 0.290349 0 4 ack 40 ------- 1 0.1 4.1 13 219
- 0.290349 0 4 ack 40 ------- 1 0.1 4.1 13 219
r 0.290432 0 1 tcp 1040 ------- 1 0.0 1.0 16 146
+ 0.290432 1 0 ack 40 ------- 1 1.0 0.0 13 220
- 0.290432 1 0 ack 40 ------- 1 1.0 0.0 13 220
r 0.290432 1 2 tcp 1040 ------- 1 1.1 2.0 16 148
+ 0.290432 2 1 ack 40 ------- 1 2.0 1.1 13 221
- 0.290432 2 1 ack 40 ------- 1 2.0 1.1 13 221
r 0.290432 2 3 tcp 1040 ------- 1 2.1 3.0 16 150
+ 0.290432 3 2 ack 40 ------- 1 3.0 2.1 13 222
- 0.290432 3 2 ack 40 ------- 1 3.0 2.1 13 222
r 0.290432 3 4 tcp 1040 ------- 1 3.1 4.0 16 152
+ 0.290432 4 3 ack 40 ------- 1 4.0 3.1 13 223
- 0.290432 4 3 ack 40 ------- 1 4.0 3.1 13 223
r 0.290432 4 0 tcp 1040 ------- 1 4.1 0.1 16 154
+ 0.290432 0 4 ack 40 ------- 1 0.1 4.1 13 224
- 0.290432 0 4 ack 40 ------- 1 0.1 4.1 13 224
r 0.290515 0 1 tcp 1040 ------- 1 0.0 1.0 17 155
+ 0.290515 1 0 ack 40 ------- 1 1.0 0.0 13 225
- 0.290515 1 0 ack 40 ------- 1 1.0 0.0 13 225
r 0.290515 1 2 tcp 1040 ------- 1 1.1 2.0 17 157
+ 0.290515 2 1 ack 40 ------- 1 2.0 1.1 13 226
- 0.290515 2 1 ack 40 ------- 1 2.0 1.1 13 226
r 0.290515 2 3 tcp 1040 ------- 1 2.1 3.0 17 159
+ 0.290515 3 2 ack 40 ------- 1 3.0 2.1 13 227
- 0.290515 3 2 ack 40 ------- 1 3.0 2.1 13 227
r 0.290515 3 4 tcp 1040 ------- 1 3.1 4.0 17 161
+ 0.290515 4 3 ack 40 ------- 1 4.0 3.1 13 228
- 0.290515 4 3 ack 40 ------- 1 4.0 3.1 13 228
r 0.290515 4 0 tcp 1040 ------- 1 4.1 0.1 17 163
+ 0.290515 0 4 ack 40 ------- 1 0.1 4.1 13 229
- 0.290515 0 4 ack 40 ------- 1 0.1 4.1 13 229
r 0.290598 0 1 tcp 1040 ------- 1 0.0 1.0 18 156
+ 0.290598 1 0 ack 40 ------- 1 1.0 0.0 13 230
- 0.290598 1 0 ack 40 ------- 1 1.0 0.0 13 230
r 0.290598 1 2 tcp 1040 ------- 1 1.1 2.0 18 158
+ 0.290598 2 1 ack 40 ------- 1 2.0 1.1 13 231
- 0.290598 2 1 ack 40 ------- 1 2.0 1.1 13 231
r 0.290598 2 3 tcp 1040 ------- 1 2.1 3.0 18 160
+ 0.290598 3 2 ack 40 ------- 1 3.0 2.1 13 232
- 0.290598 3 2 ack 40 ------- 1 3.0 2.1 13 232
r 0.290598 3 4 tcp 1040 ------- 1 3.1 4.0 18 162
+ 0.290598 4 3 ack 40 ------- 1 4.0 3.1 13 233
- 0.290598 4 3 ack 40 ------- 1 4.0 3.1 13 233
r 0.290598 4 0 tcp 1040 ------- 1 4.1 0.1 18 164
+ 0.290598 0 4 ack 40 ------- 1 0.1 4.1 13 234
- 0.290598 0 4 ack 40 ------- 1 0.1 4.1 13 234
r 0.290682 0 1 tcp 1040 ------- 1 0.0 1.0 19 165
+ 0.290682 1 0 ack 40 ------- 1 1.0 0.0 13 235
- 0.290682 1 0 ack 40 ------- 1 1.0 0.0 13 235
r 0.290682 1 2 tcp 1040 ------- 1 1.1 2.0 19 167
+ 0.290682 2 1 ack 40 ------- 1 2.0 1.1 13 236
- 0.290682 2 1 ack 40 ------- 1 2.0 1.1 13 236
r 0.290682 2 3 tcp 1040 ------- 1 2.1 3.0 19 169