+ 0.205523 2 4 tcp 40 ------- 1 2.3 4.2 0 0
- 0.205523 2 4 tcp 40 ------- 1 2.3 4.2 0 0
+ 0.209988 0 5 tcp 40 ------- 1 0.4 5.0 0 1
- 0.209988 0 5 tcp 40 ------- 1 0.4 5.0 0 1
+ 0.211502 2 5 tcp 40 ------- 1 2.4 5.2 0 2
- 0.211502 2 5 tcp 40 ------- 1 2.4 5.2 0 2
+ 0.211941 2 3 tcp 40 ------- 1 2.2 3.2 0 3
- 0.211941 2 3 tcp 40 ------- 1 2.2 3.2 0 3
r 0.215526 2 4 tcp 40 ------- 1 2.3 4.2 0 0
+ 0.215526 4 2 ack 40 ------- 1 4.2 2.3 0 4
- 0.215526 4 2 ack 40 ------- 1 4.2 2.3 0 4
+ 0.216122 0 2 tcp 40 ------- 1 0.1 2.0 0 5
- 0.216122 0 2 tcp 40 ------- 1 0.1 2.0 0 5
r 0.219991 0 5 tcp 40 ------- 1 0.4 5.0 0 1
+ 0.219991 5 0 ack 40 ------- 1 5.0 0.4 0 6
- 0.219991 5 0 ack 40 ------- 1 5.0 0.4 0 6
r 0.221505 2 5 tcp 40 ------- 1 2.4 5.2 0 2
+ 0.221505 5 2 ack 40 ------- 1 5.2 2.4 0 7
- 0.221505 5 2 ack 40 ------- 1 5.2 2.4 0 7
r 0.221944 2 3 tcp 40 ------- 1 2.2 3.2 0 3
+ 0.221944 3 2 ack 40 ------- 1 3.2 2.2 0 8
- 0.221944 3 2 ack 40 ------- 1 3.2 2.2 0 8
r 0.22553 4 2 ack 40 ------- 1 4.2 2.3 0 4
+ 0.22553 2 4 tcp 1040 ------- 1 2.3 4.2 1 9
- 0.22553 2 4 tcp 1040 ------- 1 2.3 4.2 1 9
r 0.226125 0 2 tcp 40 ------- 1 0.1 2.0 0 5
+ 0.226125 2 0 ack 40 ------- 1 2.0 0.1 0 10
- 0.226125 2 0 ack 40 ------- 1 2.0 0.1 0 10
+ 0.22715 0 4 tcp 40 ------- 1 0.3 4.0 0 11
- 0.22715 0 4 tcp 40 ------- 1 0.3 4.0 0 11
r 0.229994 5 0 ack 40 ------- 1 5.0 0.4 0 6
+ 0.229994 0 5 tcp 1040 ------- 1 0.4 5.0 1 12
- 0.229994 0 5 tcp 1040 ------- 1 0.4 5.0 1 12
r 0.231508 5 2 ack 40 ------- 1 5.2 2.4 0 7
+ 0.231508 2 5 tcp 1040 ------- 1 2.4 5.2 1 13
- 0.231508 2 5 tcp 1040 ------- 1 2.4 5.2 1 13
r 0.231947 3 2 ack 40 ------- 1 3.2 2.2 0 8
+ 0.231947 2 3 tcp 1040 ------- 1 2.2 3.2 1 14
- 0.231947 2 3 tcp 1040 ------- 1 2.2 3.2 1 14
r 0.235613 2 4 tcp 1040 ------- 1 2.3 4.2 1 9
+ 0.235613 4 2 ack 40 ------- 1 4.2 2.3 1 15
- 0.235613 4 2 ack 40 ------- 1 4.2 2.3 1 15
r 0.236128 2 0 ack 40 ------- 1 2.0 0.1 0 10
+ 0.236128 0 2 tcp 1040 ------- 1 0.1 2.0 1 16
- 0.236128 0 2 tcp 1040 ------- 1 0.1 2.0 1 16
r 0.237154 0 4 tcp 40 ------- 1 0.3 4.0 0 11
+ 0.237154 4 0 ack 40 ------- 1 4.0 0.3 0 17
- 0.237154 4 0 ack 40 ------- 1 4.0 0.3 0 17
+ 0.238957 0 3 tcp 40 ------- 1 0.2 3.0 0 18
- 0.238957 0 3 tcp 40 ------- 1 0.2 3.0 0 18
r 0.240078 0 5 tcp 1040 ------- 1 0.4 5.0 1 12
+ 0.240078 5 0 ack 40 ------- 1 5.0 0.4 1 19
- 0.240078 5 0 ack 40 ------- 1 5.0 0.4 1 19
r 0.241592 2 5 tcp 1040 ------- 1 2.4 5.2 1 13
+ 0.241592 5 2 ack 40 ------- 1 5.2 2.4 1 20
- 0.241592 5 2 ack 40 ------- 1 5.2 2.4 1 20
r 0.242031 2 3 tcp 1040 ------- 1 2.2 3.2 1 14
+ 0.242031 3 2 ack 40 ------- 1 3.2 2.2 1 21
- 0.242031 3 2 ack 40 ------- 1 3.2 2.2 1 21
r 0.245616 4 2 ack 40 ------- 1 4.2 2.3 1 15
r 0.246211 0 2 tcp 1040 ------- 1 0.1 2.0 1 16
+ 0.246211 2 0 ack 40 ------- 1 2.0 0.1 1 22
- 0.246211 2 0 ack 40 ------- 1 2.0 0.1 1 22
r 0.247157 4 0 ack 40 ------- 1 4.0 0.3 0 17
+ 0.247157 0 4 tcp 1040 ------- 1 0.3 4.0 1 23
- 0.247157 0 4 tcp 1040 ------- 1 0.3 4.0 1 23
r 0.24896 0 3 tcp 40 ------- 1 0.2 3.0 0 18
+ 0.24896 3 0 ack 40 ------- 1 3.0 0.2 0 24
- 0.24896 3 0 ack 40 ------- 1 3.0 0.2 0 24
r 0.250081 5 0 ack 40 ------- 1 5.0 0.4 1 19
r 0.251595 5 2 ack 40 ------- 1 5.2 2.4 1 20
r 0.252034 3 2 ack 40 ------- 1 3.2 2.2 1 21
+ 0.252194 2 3 tcp 1040 ------- 1 2.2 3.2 2 25
- 0.252194 2 3 tcp 1040 ------- 1 2.2 3.2 2 25
r 0.256215 2 0 ack 40 ------- 1 2.0 0.1 1 22
r 0.25724 0 4 tcp 1040 ------- 1 0.3 4.0 1 23
+ 0.25724 4 0 ack 40 ------- 1 4.0 0.3 1 26
- 0.25724 4 0 ack 40 ------- 1 4.0 0.3 1 26
+ 0.257438 2 4 tcp 1040 ------- 1 2.3 4.2 2 27
- 0.257438 2 4 tcp 1040 ------- 1 2.3 4.2 2 27
r 0.258963 3 0 ack 40 ------- 1 3.0 0.2 0 24
+ 0.258963 0 3 tcp 1040 ------- 1 0.2 3.0 1 28
- 0.258963 0 3 tcp 1040 ------- 1 0.2 3.0 1 28
r 0.262278 2 3 tcp 1040 ------- 1 2.2 3.2 2 25
+ 0.262278 3 2 ack 40 ------- 1 3.2 2.2 2 29
- 0.262278 3 2 ack 40 ------- 1 3.2 2.2 2 29
+ 0.263008 0 4 tcp 1040 ------- 1 0.3 4.0 2 30
- 0.263008 0 4 tcp 1040 ------- 1 0.3 4.0 2 30
+ 0.265358 2 3 tcp 1040 ------- 1 2.2 3.2 3 31
- 0.265358 2 3 tcp 1040 ------- 1 2.2 3.2 3 31
r 0.267243 4 0 ack 40 ------- 1 4.0 0.3 1 26
r 0.267521 2 4 tcp 1040 ------- 1 2.3 4.2 2 27
+ 0.267521 4 2 ack 40 ------- 1 4.2 2.3 2 32
- 0.267521 4 2 ack 40 ------- 1 4.2 2.3 2 32
r 0.269046 0 3 tcp 1040 ------- 1 0.2 3.0 1 28
+ 0.269046 3 0 ack 40 ------- 1 3.0 0.2 1 33
- 0.269046 3 0 ack 40 ------- 1 3.0 0.2 1 33
r 0.272281 3 2 ack 40 ------- 1 3.2 2.2 2 29
r 0.273091 0 4 tcp 1040 ------- 1 0.3 4.0 2 30
+ 0.273091 4 0 ack 40 ------- 1 4.0 0.3 2 34
- 0.273091 4 0 ack 40 ------- 1 4.0 0.3 2 34
r 0.275442 2 3 tcp 1040 ------- 1 2.2 3.2 3 31
+ 0.275442 3 2 ack 40 ------- 1 3.2 2.2 3 35
- 0.275442 3 2 ack 40 ------- 1 3.2 2.2 3 35
r 0.277524 4 2 ack 40 ------- 1 4.2 2.3 2 32
r 0.27905 3 0 ack 40 ------- 1 3.0 0.2 1 33
r 0.283094 4 0 ack 40 ------- 1 4.0 0.3 2 34
r 0.285445 3 2 ack 40 ------- 1 3.2 2.2 3 35
+ 0.290259 1 2 tcp 40 ------- 1 1.1 2.1 0 36
- 0.290259 1 2 tcp 40 ------- 1 1.1 2.1 0 36
+ 0.290583 1 4 tcp 40 ------- 1 1.3 4.1 0 37
- 0.290583 1 4 tcp 40 ------- 1 1.3 4.1 0 37
+ 0.299686 0 3 tcp 1040 ------- 1 0.2 3.0 2 38
- 0.299686 0 3 tcp 1040 ------- 1 0.2 3.0 2 38
r 0.300262 1 2 tcp 40 ------- 1 1.1 2.1 0 36
+ 0.300262 2 1 ack 40 ------- 1 2.1 1.1 0 39
- 0.300262 2 1 ack 40 ------- 1 2.1 1.1 0 39
r 0.300586 1 4 tcp 40 ------- 1 1.3 4.1 0 37
+ 0.300586 4 1 ack 40 ------- 1 4.1 1.3 0 40
- 0.300586 4 1 ack 40 ------- 1 4.1 1.3 0 40
r 0.30977 0 3 tcp 1040 ------- 1 0.2 3.0 2 38
+ 0.30977 3 0 ack 40 ------- 1 3.0 0.2 2 41
- 0.30977 3 0 ack 40 ------- 1 3.0 0.2 2 41
r 0.310265 2 1 ack 40 ------- 1 2.1 1.1 0 39
+ 0.310265 1 2 tcp 1040 ------- 1 1.1 2.1 1 42
- 0.310265 1 2 tcp 1040 ------- 1 1.1 2.1 1 42
r 0.310589 4 1 ack 40 ------- 1 4.1 1.3 0 40
+ 0.310589 1 4 tcp 1040 ------- 1 1.3 4.1 1 43
- 0.310589 1 4 tcp 1040 ------- 1 1.3 4.1 1 43
+ 0.319153 0 5 tcp 1040 ------- 1 0.4 5.0 2 44
- 0.319153 0 5 tcp 1040 ------- 1 0.4 5.0 2 44
r 0.319773 3 0 ack 40 ------- 1 3.0 0.2 2 41
r 0.320348 1 2 tcp 1040 ------- 1 1.1 2.1 1 42
+ 0.320348 2 1 ack 40 ------- 1 2.1 1.1 1 45
- 0.320348 2 1 ack 40 ------- 1 2.1 1.1 1 45
r 0.320672 1 4 tcp 1040 ------- 1 1.3 4.1 1 43
+ 0.320672 4 1 ack 40 ------- 1 4.1 1.3 1 46
- 0.320672 4 1 ack 40 ------- 1 4.1 1.3 1 46
+ 0.321915 0 4 tcp 1040 ------- 1 0.3 4.0 3 47
- 0.321915 0 4 tcp 1040 ------- 1 0.3 4.0 3 47
+ 0.32738 0 4 tcp 1040 ------- 1 0.3 4.0 4 48
- 0.32738 0 4 tcp 1040 ------- 1 0.3 4.0 4 48
r 0.329236 0 5 tcp 1040 ------- 1 0.4 5.0 2 44
+ 0.329236 5 0 ack 40 ------- 1 5.0 0.4 2 49
- 0.329236 5 0 ack 40 ------- 1 5.0 0.4 2 49
r 0.330352 2 1 ack 40 ------- 1 2.1 1.1 1 45
r 0.330675 4 1 ack 40 ------- 1 4.1 1.3 1 46
r 0.331998 0 4 tcp 1040 ------- 1 0.3 4.0 3 47
+ 0.331998 4 0 ack 40 ------- 1 4.0 0.3 3 50
- 0.331998 4 0 ack 40 ------- 1 4.0 0.3 3 50
r 0.337463 0 4 tcp 1040 ------- 1 0.3 4.0 4 48
+ 0.337463 4 0 ack 40 ------- 1 4.0 0.3 4 51
- 0.337463 4 0 ack 40 ------- 1 4.0 0.3 4 51
r 0.339239 5 0 ack 40 ------- 1 5.0 0.4 2 49
r 0.342002 4 0 ack 40 ------- 1 4.0 0.3 3 50
+ 0.342202 0 1 tcp 40 ------- 1 0.0 1.0 0 52
- 0.342202 0 1 tcp 40 ------- 1 0.0 1.0 0 52
+ 0.343362 0 5 tcp 1040 ------- 1 0.4 5.0 3 53
- 0.343362 0 5 tcp 1040 ------- 1 0.4 5.0 3 53
r 0.347467 4 0 ack 40 ------- 1 4.0 0.3 4 51
+ 0.350764 2 3 tcp 1040 ------- 1 2.2 3.2 4 54
- 0.350764 2 3 tcp 1040 ------- 1 2.2 3.2 4 54
+ 0.351992 0 2 tcp 1040 ------- 1 0.1 2.0 2 55
- 0.351992 0 2 tcp 1040 ------- 1 0.1 2.0 2 55
r 0.352205 0 1 tcp 40 ------- 1 0.0 1.0 0 52
+ 0.352205 1 0 ack 40 ------- 1 1.0 0.0 0 56
- 0.352205 1 0 ack 40 ------- 1 1.0 0.0 0 56
+ 0.353167 0 4 tcp 1040 ------- 1 0.3 4.0 5 57
- 0.353167 0 4 tcp 1040 ------- 1 0.3 4.0 5 57
r 0.353445 0 5 tcp 1040 ------- 1 0.4 5.0 3 53
+ 0.353445 5 0 ack 40 ------- 1 5.0 0.4 3 58
- 0.353445 5 0 ack 40 ------- 1 5.0 0.4 3 58
+ 0.354421 0 2 tcp 1040 ------- 1 0.1 2.0 3 59
- 0.354421 0 2 tcp 1040 ------- 1 0.1 2.0 3 59
r 0.360847 2 3 tcp 1040 ------- 1 2.2 3.2 4 54
+ 0.360847 3 2 ack 40 ------- 1 3.2 2.2 4 60
- 0.360847 3 2 ack 40 ------- 1 3.2 2.2 4 60
r 0.362075 0 2 tcp 1040 ------- 1 0.1 2.0 2 55
+ 0.362075 2 0 ack 40 ------- 1 2.0 0.1 2 61
- 0.362075 2 0 ack 40 ------- 1 2.0 0.1 2 61
r 0.362209 1 0 ack 40 ------- 1 1.0 0.0 0 56
+ 0.362209 0 1 tcp 1040 ------- 1 0.0 1.0 1 62
- 0.362209 0 1 tcp 1040 ------- 1 0.0 1.0 1 62
r 0.36325 0 4 tcp 1040 ------- 1 0.3 4.0 5 57
+ 0.36325 4 0 ack 40 ------- 1 4.0 0.3 5 63
- 0.36325 4 0 ack 40 ------- 1 4.0 0.3 5 63
r 0.363448 5 0 ack 40 ------- 1 5.0 0.4 3 58
r 0.364504 0 2 tcp 1040 ------- 1 0.1 2.0 3 59
+ 0.364504 2 0 ack 40 ------- 1 2.0 0.1 3 64
- 0.364504 2 0 ack 40 ------- 1 2.0 0.1 3 64
+ 0.36747 1 5 tcp 40 ------- 1 1.4 5.1 0 65
- 0.36747 1 5 tcp 40 ------- 1 1.4 5.1 0 65
r 0.37085 3 2 ack 40 ------- 1 3.2 2.2 4 60
r 0.372079 2 0 ack 40 ------- 1 2.0 0.1 2 61
r 0.372292 0 1 tcp 1040 ------- 1 0.0 1.0 1 62
+ 0.372292 1 0 ack 40 ------- 1 1.0 0.0 1 66
- 0.372292 1 0 ack 40 ------- 1 1.0 0.0 1 66
r 0.373254 4 0 ack 40 ------- 1 4.0 0.3 5 63
r 0.374507 2 0 ack 40 ------- 1 2.0 0.1 3 64
r 0.377473 1 5 tcp 40 ------- 1 1.4 5.1 0 65
+ 0.377473 5 1 ack 40 ------- 1 5.1 1.4 0 67
- 0.377473 5 1 ack 40 ------- 1 5.1 1.4 0 67
+ 0.379755 0 5 tcp 1040 ------- 1 0.4 5.0 4 68
- 0.379755 0 5 tcp 1040 ------- 1 0.4 5.0 4 68
r 0.382295 1 0 ack 40 ------- 1 1.0 0.0 1 66
r 0.387476 5 1 ack 40 ------- 1 5.1 1.4 0 67
+ 0.387476 1 5 tcp 1040 ------- 1 1.4 5.1 1 69
- 0.387476 1 5 tcp 1040 ------- 1 1.4 5.1 1 69
r 0.389838 0 5 tcp 1040 ------- 1 0.4 5.0 4 68
+ 0.389838 5 0 ack 40 ------- 1 5.0 0.4 4 70
- 0.389838 5 0 ack 40 ------- 1 5.0 0.4 4 70
+ 0.391446 2 4 tcp 1040 ------- 1 2.3 4.2 3 71
- 0.391446 2 4 tcp 1040 ------- 1 2.3 4.2 3 71
+ 0.394245 0 5 tcp 1040 ------- 1 0.4 5.0 5 72
- 0.394245 0 5 tcp 1040 ------- 1 0.4 5.0 5 72
r 0.397559 1 5 tcp 1040 ------- 1 1.4 5.1 1 69
+ 0.397559 5 1 ack 40 ------- 1 5.1 1.4 1 73
- 0.397559 5 1 ack 40 ------- 1 5.1 1.4 1 73
r 0.399841 5 0 ack 40 ------- 1 5.0 0.4 4 70
r 0.401529 2 4 tcp 1040 ------- 1 2.3 4.2 3 71
+ 0.401529 4 2 ack 40 ------- 1 4.2 2.3 3 74
- 0.401529 4 2 ack 40 ------- 1 4.2 2.3 3 74
+ 0.402265 1 4 tcp 1040 ------- 1 1.3 4.1 2 75
- 0.402265 1 4 tcp 1040 ------- 1 1.3 4.1 2 75
r 0.404329 0 5 tcp 1040 ------- 1 0.4 5.0 5 72
+ 0.404329 5 0 ack 40 ------- 1 5.0 0.4 5 76
- 0.404329 5 0 ack 40 ------- 1 5.0 0.4 5 76
r 0.407562 5 1 ack 40 ------- 1 5.1 1.4 1 73
r 0.411533 4 2 ack 40 ------- 1 4.2 2.3 3 74
r 0.412349 1 4 tcp 1040 ------- 1 1.3 4.1 2 75
+ 0.412349 4 1 ack 40 ------- 1 4.1 1.3 2 77
- 0.412349 4 1 ack 40 ------- 1 4.1 1.3 2 77
r 0.414332 5 0 ack 40 ------- 1 5.0 0.4 5 76
+ 0.418898 3 4 tcp 40 ------- 1 3.3 4.3 0 78
- 0.418898 3 4 tcp 40 ------- 1 3.3 4.3 0 78
+ 0.420975 2 5 tcp 1040 ------- 1 2.4 5.2 2 79
- 0.420975 2 5 tcp 1040 ------- 1 2.4 5.2 2 79
+ 0.421459 1 3 tcp 40 ------- 1 1.2 3.1 0 80
- 0.421459 1 3 tcp 40 ------- 1 1.2 3.1 0 80
r 0.422352 4 1 ack 40 ------- 1 4.1 1.3 2 77
+ 0.425022 0 5 tcp 1040 ------- 1 0.4 5.0 6 81
- 0.425022 0 5 tcp 1040 ------- 1 0.4 5.0 6 81
+ 0.425405 0 2 tcp 1040 ------- 1 0.1 2.0 4 82
- 0.425405 0 2 tcp 1040 ------- 1 0.1 2.0 4 82
r 0.428901 3 4 tcp 40 ------- 1 3.3 4.3 0 78
+ 0.428901 4 3 ack 40 ------- 1 4.3 3.3 0 83
- 0.428901 4 3 ack 40 ------- 1 4.3 3.3 0 83
r 0.431058 2 5 tcp 1040 ------- 1 2.4 5.2 2 79
+ 0.431058 5 2 ack 40 ------- 1 5.2 2.4 2 84
- 0.431058 5 2 ack 40 ------- 1 5.2 2.4 2 84
r 0.431462 1 3 tcp 40 ------- 1 1.2 3.1 0 80
+ 0.431462 3 1 ack 40 ------- 1 3.1 1.2 0 85
- 0.431462 3 1 ack 40 ------- 1 3.1 1.2 0 85
r 0.435105 0 5 tcp 1040 ------- 1 0.4 5.0 6 81
+ 0.435105 5 0 ack 40 ------- 1 5.0 0.4 6 86
- 0.435105 5 0 ack 40 ------- 1 5.0 0.4 6 86
r 0.435488 0 2 tcp 1040 ------- 1 0.1 2.0 4 82
+ 0.435488 2 0 ack 40 ------- 1 2.0 0.1 4 87
- 0.435488 2 0 ack 40 ------- 1 2.0 0.1 4 87
+ 0.438799 0 2 tcp 1040 ------- 1 0.1 2.0 5 88
- 0.438799 0 2 tcp 1040 ------- 1 0.1 2.0 5 88
r 0.438904 4 3 ack 40 ------- 1 4.3 3.3 0 83
+ 0.438904 3 4 tcp 1040 ------- 1 3.3 4.3 1 89
- 0.438904 3 4 tcp 1040 ------- 1 3.3 4.3 1 89
r 0.441061 5 2 ack 40 ------- 1 5.2 2.4 2 84
r 0.441465 3 1 ack 40 ------- 1 3.1 1.2 0 85
+ 0.441465 1 3 tcp 1040 ------- 1 1.2 3.1 1 90
- 0.441465 1 3 tcp 1040 ------- 1 1.2 3.1 1 90
+ 0.441465 1 3 tcp 1040 ------- 1 1.2 3.1 2 91
+ 0.441505 2 5 tcp 1040 ------- 1 2.4 5.2 3 92
- 0.441505 2 5 tcp 1040 ------- 1 2.4 5.2 3 92
- 0.441548 1 3 tcp 1040 ------- 1 1.2 3.1 2 91
r 0.445108 5 0 ack 40 ------- 1 5.0 0.4 6 86
r 0.445491 2 0 ack 40 ------- 1 2.0 0.1 4 87
r 0.448882 0 2 tcp 1040 ------- 1 0.1 2.0 5 88
+ 0.448882 2 0 ack 40 ------- 1 2.0 0.1 5 93
- 0.448882 2 0 ack 40 ------- 1 2.0 0.1 5 93
r 0.448987 3 4 tcp 1040 ------- 1 3.3 4.3 1 89
+ 0.448987 4 3 ack 40 ------- 1 4.3 3.3 1 94
- 0.448987 4 3 ack 40 ------- 1 4.3 3.3 1 94
r 0.451548 1 3 tcp 1040 ------- 1 1.2 3.1 1 90
+ 0.451548 3 1 ack 40 ------- 1 3.1 1.2 1 95
- 0.451548 3 1 ack 40 ------- 1 3.1 1.2 1 95
r 0.451589 2 5 tcp 1040 ------- 1 2.4 5.2 3 92
+ 0.451589 5 2 ack 40 ------- 1 5.2 2.4 3 96
- 0.451589 5 2 ack 40 ------- 1 5.2 2.4 3 96
r 0.451632 1 3 tcp 1040 ------- 1 1.2 3.1 2 91
+ 0.451632 3 1 ack 40 ------- 1 3.1 1.2 2 97
- 0.451632 3 1 ack 40 ------- 1 3.1 1.2 2 97
+ 0.454389 2 4 tcp 1040 ------- 1 2.3 4.2 4 98
- 0.454389 2 4 tcp 1040 ------- 1 2.3 4.2 4 98
+ 0.456761 0 5 tcp 1040 ------- 1 0.4 5.0 7 99
- 0.456761 0 5 tcp 1040 ------- 1 0.4 5.0 7 99
r 0.458885 2 0 ack 40 ------- 1 2.0 0.1 5 93
r 0.45899 4 3 ack 40 ------- 1 4.3 3.3 1 94
r 0.461552 3 1 ack 40 ------- 1 3.1 1.2 1 95
r 0.461592 5 2 ack 40 ------- 1 5.2 2.4 3 96
r 0.461635 3 1 ack 40 ------- 1 3.1 1.2 2 97
+ 0.463569 2 5 tcp 1040 ------- 1 2.4 5.2 4 100
- 0.463569 2 5 tcp 1040 ------- 1 2.4 5.2 4 100
r 0.464472 2 4 tcp 1040 ------- 1 2.3 4.2 4 98
+ 0.464472 4 2 ack 40 ------- 1 4.2 2.3 4 101
- 0.464472 4 2 ack 40 ------- 1 4.2 2.3 4 101
r 0.466844 0 5 tcp 1040 ------- 1 0.4 5.0 7 99
+ 0.466844 5 0 ack 40 ------- 1 5.0 0.4 7 102
- 0.466844 5 0 ack 40 ------- 1 5.0 0.4 7 102
+ 0.467772 0 3 tcp 1040 ------- 1 0.2 3.0 3 103
- 0.467772 0 3 tcp 1040 ------- 1 0.2 3.0 3 103
+ 0.469473 0 2 tcp 1040 ------- 1 0.1 2.0 6 104
- 0.469473 0 2 tcp 1040 ------- 1 0.1 2.0 6 104
r 0.473652 2 5 tcp 1040 ------- 1 2.4 5.2 4 100
+ 0.473652 5 2 ack 40 ------- 1 5.2 2.4 4 105
- 0.473652 5 2 ack 40 ------- 1 5.2 2.4 4 105
r 0.474475 4 2 ack 40 ------- 1 4.2 2.3 4 101
r 0.476848 5 0 ack 40 ------- 1 5.0 0.4 7 102
r 0.477855 0 3 tcp 1040 ------- 1 0.2 3.0 3 103
+ 0.477855 3 0 ack 40 ------- 1 3.0 0.2 3 106
- 0.477855 3 0 ack 40 ------- 1 3.0 0.2 3 106
r 0.479556 0 2 tcp 1040 ------- 1 0.1 2.0 6 104
+ 0.479556 2 0 ack 40 ------- 1 2.0 0.1 6 107
- 0.479556 2 0 ack 40 ------- 1 2.0 0.1 6 107
r 0.483655 5 2 ack 40 ------- 1 5.2 2.4 4 105
+ 0.483954 2 5 tcp 1040 ------- 1 2.4 5.2 5 108
- 0.483954 2 5 tcp 1040 ------- 1 2.4 5.2 5 108
+ 0.484039 3 5 tcp 40 ------- 1 3.4 5.3 0 109
- 0.484039 3 5 tcp 40 ------- 1 3.4 5.3 0 109
+ 0.485103 1 3 tcp 1040 ------- 1 1.2 3.1 3 110
- 0.485103 1 3 tcp 1040 ------- 1 1.2 3.1 3 110
r 0.487859 3 0 ack 40 ------- 1 3.0 0.2 3 106
+ 0.488725 1 4 tcp 1040 ------- 1 1.3 4.1 3 111
- 0.488725 1 4 tcp 1040 ------- 1 1.3 4.1 3 111
r 0.489559 2 0 ack 40 ------- 1 2.0 0.1 6 107
+ 0.492136 0 3 tcp 1040 ------- 1 0.2 3.0 4 112
- 0.492136 0 3 tcp 1040 ------- 1 0.2 3.0 4 112
r 0.494037 2 5 tcp 1040 ------- 1 2.4 5.2 5 108
+ 0.494037 5 2 ack 40 ------- 1 5.2 2.4 5 113
- 0.494037 5 2 ack 40 ------- 1 5.2 2.4 5 113
r 0.494043 3 5 tcp 40 ------- 1 3.4 5.3 0 109
+ 0.494043 5 3 ack 40 ------- 1 5.3 3.4 0 114
- 0.494043 5 3 ack 40 ------- 1 5.3 3.4 0 114
r 0.495187 1 3 tcp 1040 ------- 1 1.2 3.1 3 110
+ 0.495187 3 1 ack 40 ------- 1 3.1 1.2 3 115
- 0.495187 3 1 ack 40 ------- 1 3.1 1.2 3 115
r 0.498808 1 4 tcp 1040 ------- 1 1.3 4.1 3 111
+ 0.498808 4 1 ack 40 ------- 1 4.1 1.3 3 116
- 0.498808 4 1 ack 40 ------- 1 4.1 1.3 3 116
+ 0.499834 0 1 tcp 1040 ------- 1 0.0 1.0 2 117
- 0.499834 0 1 tcp 1040 ------- 1 0.0 1.0 2 117
r 0.502219 0 3 tcp 1040 ------- 1 0.2 3.0 4 112
+ 0.502219 3 0 ack 40 ------- 1 3.0 0.2 4 118
- 0.502219 3 0 ack 40 ------- 1 3.0 0.2 4 118
r 0.50404 5 2 ack 40 ------- 1 5.2 2.4 5 113
r 0.504046 5 3 ack 40 ------- 1 5.3 3.4 0 114
+ 0.504046 3 5 tcp 1040 ------- 1 3.4 5.3 1 119
- 0.504046 3 5 tcp 1040 ------- 1 3.4 5.3 1 119
r 0.50519 3 1 ack 40 ------- 1 3.1 1.2 3 115
r 0.508812 4 1 ack 40 ------- 1 4.1 1.3 3 116
r 0.509918 0 1 tcp 1040 ------- 1 0.0 1.0 2 117
+ 0.509918 1 0 ack 40 ------- 1 1.0 0.0 2 120
- 0.509918 1 0 ack 40 ------- 1 1.0 0.0 2 120
+ 0.510491 0 2 tcp 1040 ------- 1 0.1 2.0 7 121
- 0.510491 0 2 tcp 1040 ------- 1 0.1 2.0 7 121
r 0.512222 3 0 ack 40 ------- 1 3.0 0.2 4 118
r 0.514129 3 5 tcp 1040 ------- 1 3.4 5.3 1 119
+ 0.514129 5 3 ack 40 ------- 1 5.3 3.4 1 122
- 0.514129 5 3 ack 40 ------- 1 5.3 3.4 1 122
+ 0.515028 0 5 tcp 1040 ------- 1 0.4 5.0 8 123
- 0.515028 0 5 tcp 1040 ------- 1 0.4 5.0 8 123
r 0.519921 1 0 ack 40 ------- 1 1.0 0.0 2 120
r 0.520575 0 2 tcp 1040 ------- 1 0.1 2.0 7 121
+ 0.520575 2 0 ack 40 ------- 1 2.0 0.1 7 124
- 0.520575 2 0 ack 40 ------- 1 2.0 0.1 7 124
+ 0.522953 2 3 tcp 1040 ------- 1 2.2 3.2 5 125
- 0.522953 2 3 tcp 1040 ------- 1 2.2 3.2 5 125
r 0.524132 5 3 ack 40 ------- 1 5.3 3.4 1 122
r 0.525111 0 5 tcp 1040 ------- 1 0.4 5.0 8 123
+ 0.525111 5 0 ack 40 ------- 1 5.0 0.4 8 126
- 0.525111 5 0 ack 40 ------- 1 5.0 0.4 8 126
r 0.530578 2 0 ack 40 ------- 1 2.0 0.1 7 124
+ 0.532171 2 3 tcp 1040 ------- 1 2.2 3.2 6 127
- 0.532171 2 3 tcp 1040 ------- 1 2.2 3.2 6 127
r 0.533036 2 3 tcp 1040 ------- 1 2.2 3.2 5 125
+ 0.533036 3 2 ack 40 ------- 1 3.2 2.2 5 128
- 0.533036 3 2 ack 40 ------- 1 3.2 2.2 5 128
r 0.535114 5 0 ack 40 ------- 1 5.0 0.4 8 126
r 0.542254 2 3 tcp 1040 ------- 1 2.2 3.2 6 127
+ 0.542254 3 2 ack 40 ------- 1 3.2 2.2 6 129
- 0.542254 3 2 ack 40 ------- 1 3.2 2.2 6 129
r 0.543039 3 2 ack 40 ------- 1 3.2 2.2 5 128
+ 0.545594 1 3 tcp 1040 ------- 1 1.2 3.1 4 130
- 0.545594 1 3 tcp 1040 ------- 1 1.2 3.1 4 130
+ 0.551313 0 5 tcp 1040 ------- 1 0.4 5.0 9 131
- 0.551313 0 5 tcp 1040 ------- 1 0.4 5.0 9 131
r 0.552257 3 2 ack 40 ------- 1 3.2 2.2 6 129
r 0.555678 1 3 tcp 1040 ------- 1 1.2 3.1 4 130
+ 0.555678 3 1 ack 40 ------- 1 3.1 1.2 4 132
- 0.555678 3 1 ack 40 ------- 1 3.1 1.2 4 132
+ 0.557655 2 4 tcp 1040 ------- 1 2.3 4.2 5 133
- 0.557655 2 4 tcp 1040 ------- 1 2.3 4.2 5 133
r 0.561396 0 5 tcp 1040 ------- 1 0.4 5.0 9 131
+ 0.561396 5 0 ack 40 ------- 1 5.0 0.4 9 134
- 0.561396 5 0 ack 40 ------- 1 5.0 0.4 9 134
r 0.565681 3 1 ack 40 ------- 1 3.1 1.2 4 132
r 0.567738 2 4 tcp 1040 ------- 1 2.3 4.2 5 133
+ 0.567738 4 2 ack 40 ------- 1 4.2 2.3 5 135
- 0.567738 4 2 ack 40 ------- 1 4.2 2.3 5 135
r 0.571399 5 0 ack 40 ------- 1 5.0 0.4 9 134
+ 0.574087 3 5 tcp 1040 ------- 1 3.4 5.3 2 136
- 0.574087 3 5 tcp 1040 ------- 1 3.4 5.3 2 136
r 0.577741 4 2 ack 40 ------- 1 4.2 2.3 5 135
r 0.58417 3 5 tcp 1040 ------- 1 3.4 5.3 2 136
+ 0.58417 5 3 ack 40 ------- 1 5.3 3.4 2 137
- 0.58417 5 3 ack 40 ------- 1 5.3 3.4 2 137
+ 0.587181 1 4 tcp 1040 ------- 1 1.3 4.1 4 138
- 0.587181 1 4 tcp 1040 ------- 1 1.3 4.1 4 138
+ 0.592465 0 4 tcp 1040 ---A--- 1 0.3 4.0 6 139
- 0.592465 0 4 tcp 1040 ---A--- 1 0.3 4.0 6 139
r 0.594173 5 3 ack 40 ------- 1 5.3 3.4 2 137
r 0.597264 1 4 tcp 1040 ------- 1 1.3 4.1 4 138
+ 0.597264 4 1 ack 40 ------- 1 4.1 1.3 4 140
- 0.597264 4 1 ack 40 ------- 1 4.1 1.3 4 140
+ 0.599822 1 4 tcp 1040 ------- 1 1.3 4.1 5 141
- 0.599822 1 4 tcp 1040 ------- 1 1.3 4.1 5 141
r 0.602549 0 4 tcp 1040 ---A--- 1 0.3 4.0 6 139
+ 0.602549 4 0 ack 40 ------- 1 4.0 0.3 6 142
- 0.602549 4 0 ack 40 ------- 1 4.0 0.3 6 142
r 0.607268 4 1 ack 40 ------- 1 4.1 1.3 4 140
r 0.609905 1 4 tcp 1040 ------- 1 1.3 4.1 5 141
+ 0.609905 4 1 ack 40 ------- 1 4.1 1.3 5 143
- 0.609905 4 1 ack 40 ------- 1 4.1 1.3 5 143
r 0.612552 4 0 ack 40 ------- 1 4.0 0.3 6 142
+ 0.612552 0 4 tcp 1040 ------- 1 0.3 4.0 7 144
- 0.612552 0 4 tcp 1040 ------- 1 0.3 4.0 7 144
r 0.619908 4 1 ack 40 ------- 1 4.1 1.3 5 143
+ 0.620689 0 2 tcp 1040 ------- 1 0.1 2.0 8 145
- 0.620689 0 2 tcp 1040 ------- 1 0.1 2.0 8 145
+ 0.62141 1 4 tcp 1040 ------- 1 1.3 4.1 6 146
- 0.62141 1 4 tcp 1040 ------- 1 1.3 4.1 6 146
r 0.622635 0 4 tcp 1040 ------- 1 0.3 4.0 7 144
+ 0.622635 4 0 ack 40 ------- 1 4.0 0.3 7 147
- 0.622635 4 0 ack 40 ------- 1 4.0 0.3 7 147
r 0.630772 0 2 tcp 1040 ------- 1 0.1 2.0 8 145
+ 0.630772 2 0 ack 40 ------- 1 2.0 0.1 8 148
- 0.630772 2 0 ack 40 ------- 1 2.0 0.1 8 148
r 0.631493 1 4 tcp 1040 ------- 1 1.3 4.1 6 146
+ 0.631493 4 1 ack 40 ------- 1 4.1 1.3 6 149
- 0.631493 4 1 ack 40 ------- 1 4.1 1.3 6 149
r 0.632638 4 0 ack 40 ------- 1 4.0 0.3 7 147
r 0.640775 2 0 ack 40 ------- 1 2.0 0.1 8 148
r 0.641496 4 1 ack 40 ------- 1 4.1 1.3 6 149
+ 0.646312 1 3 tcp 1040 ------- 1 1.2 3.1 5 150
- 0.646312 1 3 tcp 1040 ------- 1 1.2 3.1 5 150
+ 0.649407 1 2 tcp 1040 ---A--- 1 1.1 2.1 2 151
- 0.649407 1 2 tcp 1040 ---A--- 1 1.1 2.1 2 151
+ 0.649482 1 4 tcp 1040 ------- 1 1.3 4.1 7 152
- 0.649482 1 4 tcp 1040 ------- 1 1.3 4.1 7 152
+ 0.652744 4 5 tcp 40 ------- 1 4.4 5.4 0 153
- 0.652744 4 5 tcp 40 ------- 1 4.4 5.4 0 153
r 0.656396 1 3 tcp 1040 ------- 1 1.2 3.1 5 150
+ 0.656396 3 1 ack 40 ------- 1 3.1 1.2 5 154
- 0.656396 3 1 ack 40 ------- 1 3.1 1.2 5 154
r 0.65949 1 2 tcp 1040 ---A--- 1 1.1 2.1 2 151
+ 0.65949 2 1 ack 40 ------- 1 2.1 1.1 2 155
- 0.65949 2 1 ack 40 ------- 1 2.1 1.1 2 155
r 0.659566 1 4 tcp 1040 ------- 1 1.3 4.1 7 152
+ 0.659566 4 1 ack 40 ------- 1 4.1 1.3 7 156
- 0.659566 4 1 ack 40 ------- 1 4.1 1.3 7 156
+ 0.661712 3 4 tcp 1040 ---A--- 1 3.3 4.3 2 157
- 0.661712 3 4 tcp 1040 ---A--- 1 3.3 4.3 2 157
r 0.662747 4 5 tcp 40 ------- 1 4.4 5.4 0 153
+ 0.662747 5 4 ack 40 ------- 1 5.4 4.4 0 158
- 0.662747 5 4 ack 40 ------- 1 5.4 4.4 0 158
r 0.666399 3 1 ack 40 ------- 1 3.1 1.2 5 154
+ 0.666776 1 5 tcp 1040 ---A--- 1 1.4 5.1 2 159
- 0.666776 1 5 tcp 1040 ---A--- 1 1.4 5.1 2 159
r 0.669493 2 1 ack 40 ------- 1 2.1 1.1 2 155
r 0.669569 4 1 ack 40 ------- 1 4.1 1.3 7 156
+ 0.670061 0 5 tcp 1040 ------- 1 0.4 5.0 10 160
- 0.670061 0 5 tcp 1040 ------- 1 0.4 5.0 10 160
r 0.671796 3 4 tcp 1040 ---A--- 1 3.3 4.3 2 157
+ 0.671796 4 3 ack 40 ------- 1 4.3 3.3 2 161
- 0.671796 4 3 ack 40 ------- 1 4.3 3.3 2 161
r 0.67275 5 4 ack 40 ------- 1 5.4 4.4 0 158
+ 0.67275 4 5 tcp 1040 ------- 1 4.4 5.4 1 162
- 0.67275 4 5 tcp 1040 ------- 1 4.4 5.4 1 162
+ 0.673026 1 2 tcp 1040 ------- 1 1.1 2.1 3 163
- 0.673026 1 2 tcp 1040 ------- 1 1.1 2.1 3 163
+ 0.673674 2 5 tcp 1040 ------- 1 2.4 5.2 6 164
- 0.673674 2 5 tcp 1040 ------- 1 2.4 5.2 6 164
r 0.67686 1 5 tcp 1040 ---A--- 1 1.4 5.1 2 159
+ 0.67686 5 1 ack 40 ------- 1 5.1 1.4 2 165
- 0.67686 5 1 ack 40 ------- 1 5.1 1.4 2 165
r 0.680144 0 5 tcp 1040 ------- 1 0.4 5.0 10 160
+ 0.680144 5 0 ack 40 ------- 1 5.0 0.4 10 166
- 0.680144 5 0 ack 40 ------- 1 5.0 0.4 10 166
r 0.681799 4 3 ack 40 ------- 1 4.3 3.3 2 161
r 0.682833 4 5 tcp 1040 ------- 1 4.4 5.4 1 162
+ 0.682833 5 4 ack 40 ------- 1 5.4 4.4 1 167
- 0.682833 5 4 ack 40 ------- 1 5.4 4.4 1 167
r 0.683109 1 2 tcp 1040 ------- 1 1.1 2.1 3 163
+ 0.683109 2 1 ack 40 ------- 1 2.1 1.1 3 168
- 0.683109 2 1 ack 40 ------- 1 2.1 1.1 3 168
r 0.683757 2 5 tcp 1040 ------- 1 2.4 5.2 6 164
+ 0.683757 5 2 ack 40 ------- 1 5.2 2.4 6 169
- 0.683757 5 2 ack 40 ------- 1 5.2 2.4 6 169
r 0.686863 5 1 ack 40 ------- 1 5.1 1.4 2 165
+ 0.687489 3 5 tcp 1040 ------- 1 3.4 5.3 3 170
- 0.687489 3 5 tcp 1040 ------- 1 3.4 5.3 3 170
r 0.690147 5 0 ack 40 ------- 1 5.0 0.4 10 166
r 0.692837 5 4 ack 40 ------- 1 5.4 4.4 1 167
r 0.693113 2 1 ack 40 ------- 1 2.1 1.1 3 168
r 0.69376 5 2 ack 40 ------- 1 5.2 2.4 6 169
+ 0.694868 1 3 tcp 1040 ------- 1 1.2 3.1 6 171
- 0.694868 1 3 tcp 1040 ------- 1 1.2 3.1 6 171
r 0.697573 3 5 tcp 1040 ------- 1 3.4 5.3 3 170
+ 0.697573 5 3 ack 40 ------- 1 5.3 3.4 3 172
- 0.697573 5 3 ack 40 ------- 1 5.3 3.4 3 172
r 0.704951 1 3 tcp 1040 ------- 1 1.2 3.1 6 171
+ 0.704951 3 1 ack 40 ------- 1 3.1 1.2 6 173
- 0.704951 3 1 ack 40 ------- 1 3.1 1.2 6 173
+ 0.705469 1 3 tcp 1040 ------- 1 1.2 3.1 7 174
- 0.705469 1 3 tcp 1040 ------- 1 1.2 3.1 7 174
r 0.707576 5 3 ack 40 ------- 1 5.3 3.4 3 172
+ 0.714731 1 4 tcp 1040 ------- 1 1.3 4.1 8 175
- 0.714731 1 4 tcp 1040 ------- 1 1.3 4.1 8 175
r 0.714954 3 1 ack 40 ------- 1 3.1 1.2 6 173
r 0.715552 1 3 tcp 1040 ------- 1 1.2 3.1 7 174
+ 0.715552 3 1 ack 40 ------- 1 3.1 1.2 7 176
- 0.715552 3 1 ack 40 ------- 1 3.1 1.2 7 176
r 0.724815 1 4 tcp 1040 ------- 1 1.3 4.1 8 175
+ 0.724815 4 1 ack 40 ------- 1 4.1 1.3 8 177
- 0.724815 4 1 ack 40 ------- 1 4.1 1.3 8 177
r 0.725555 3 1 ack 40 ------- 1 3.1 1.2 7 176
+ 0.732315 4 5 tcp 1040 ------- 1 4.4 5.4 2 178
- 0.732315 4 5 tcp 1040 ------- 1 4.4 5.4 2 178
r 0.734818 4 1 ack 40 ------- 1 4.1 1.3 8 177
r 0.742398 4 5 tcp 1040 ------- 1 4.4 5.4 2 178
+ 0.742398 5 4 ack 40 ------- 1 5.4 4.4 2 179
- 0.742398 5 4 ack 40 ------- 1 5.4 4.4 2 179
+ 0.748209 0 1 tcp 1040 ---A--- 1 0.0 1.0 3 180
- 0.748209 0 1 tcp 1040 ---A--- 1 0.0 1.0 3 180
+ 0.752178 0 5 tcp 1040 ------- 1 0.4 5.0 11 181
- 0.752178 0 5 tcp 1040 ------- 1 0.4 5.0 11 181
r 0.752401 5 4 ack 40 ------- 1 5.4 4.4 2 179
+ 0.755758 1 2 tcp 1040 ------- 1 1.1 2.1 4 182
- 0.755758 1 2 tcp 1040 ------- 1 1.1 2.1 4 182
r 0.758293 0 1 tcp 1040 ---A--- 1 0.0 1.0 3 180
+ 0.758293 1 0 ack 40 ------- 1 1.0 0.0 3 183
- 0.758293 1 0 ack 40 ------- 1 1.0 0.0 3 183
r 0.762261 0 5 tcp 1040 ------- 1 0.4 5.0 11 181
+ 0.762261 5 0 ack 40 ------- 1 5.0 0.4 11 184
- 0.762261 5 0 ack 40 ------- 1 5.0 0.4 11 184
r 0.765841 1 2 tcp 1040 ------- 1 1.1 2.1 4 182
+ 0.765841 2 1 ack 40 ------- 1 2.1 1.1 4 185
- 0.765841 2 1 ack 40 ------- 1 2.1 1.1 4 185
r 0.768296 1 0 ack 40 ------- 1 1.0 0.0 3 183
r 0.772265 5 0 ack 40 ------- 1 5.0 0.4 11 184
r 0.775844 2 1 ack 40 ------- 1 2.1 1.1 4 185
+ 0.78173 0 4 tcp 1040 ------- 1 0.3 4.0 8 186
- 0.78173 0 4 tcp 1040 ------- 1 0.3 4.0 8 186
+ 0.782878 0 5 tcp 1040 ------- 1 0.4 5.0 12 187
- 0.782878 0 5 tcp 1040 ------- 1 0.4 5.0 12 187
+ 0.784173 2 5 tcp 1040 ------- 1 2.4 5.2 7 188
- 0.784173 2 5 tcp 1040 ------- 1 2.4 5.2 7 188
r 0.791814 0 4 tcp 1040 ------- 1 0.3 4.0 8 186
+ 0.791814 4 0 ack 40 ------- 1 4.0 0.3 8 189
- 0.791814 4 0 ack 40 ------- 1 4.0 0.3 8 189
+ 0.792623 0 4 tcp 1040 ------- 1 0.3 4.0 9 190
- 0.792623 0 4 tcp 1040 ------- 1 0.3 4.0 9 190
r 0.792961 0 5 tcp 1040 ------- 1 0.4 5.0 12 187
+ 0.792961 5 0 ack 40 ------- 1 5.0 0.4 12 191
- 0.792961 5 0 ack 40 ------- 1 5.0 0.4 12 191
r 0.794256 2 5 tcp 1040 ------- 1 2.4 5.2 7 188
+ 0.794256 5 2 ack 40 ------- 1 5.2 2.4 7 192
- 0.794256 5 2 ack 40 ------- 1 5.2 2.4 7 192
+ 0.799034 1 4 tcp 1040 ------- 1 1.3 4.1 9 193
- 0.799034 1 4 tcp 1040 ------- 1 1.3 4.1 9 193
+ 0.800333 2 5 tcp 1040 ------- 1 2.4 5.2 8 194
- 0.800333 2 5 tcp 1040 ------- 1 2.4 5.2 8 194
r 0.801817 4 0 ack 40 ------- 1 4.0 0.3 8 189
r 0.802706 0 4 tcp 1040 ------- 1 0.3 4.0 9 190
+ 0.802706 4 0 ack 40 ------- 1 4.0 0.3 9 195
- 0.802706 4 0 ack 40 ------- 1 4.0 0.3 9 195
r 0.802964 5 0 ack 40 ------- 1 5.0 0.4 12 191
r 0.80426 5 2 ack 40 ------- 1 5.2 2.4 7 192
r 0.809118 1 4 tcp 1040 ------- 1 1.3 4.1 9 193
+ 0.809118 4 1 ack 40 ------- 1 4.1 1.3 9 196
- 0.809118 4 1 ack 40 ------- 1 4.1 1.3 9 196
r 0.810416 2 5 tcp 1040 ------- 1 2.4 5.2 8 194
+ 0.810416 5 2 ack 40 ------- 1 5.2 2.4 8 197
- 0.810416 5 2 ack 40 ------- 1 5.2 2.4 8 197
r 0.812709 4 0 ack 40 ------- 1 4.0 0.3 9 195
+ 0.818369 4 5 tcp 1040 ------- 1 4.4 5.4 3 198
- 0.818369 4 5 tcp 1040 ------- 1 4.4 5.4 3 198
+ 0.818919 3 4 tcp 1040 ------- 1 3.3 4.3 3 199
- 0.818919 3 4 tcp 1040 ------- 1 3.3 4.3 3 199
r 0.819121 4 1 ack 40 ------- 1 4.1 1.3 9 196
r 0.820419 5 2 ack 40 ------- 1 5.2 2.4 8 197
+ 0.828165 1 2 tcp 1040 ------- 1 1.1 2.1 5 200
- 0.828165 1 2 tcp 1040 ------- 1 1.1 2.1 5 200
r 0.828452 4 5 tcp 1040 ------- 1 4.4 5.4 3 198
+ 0.828452 5 4 ack 40 ------- 1 5.4 4.4 3 201
- 0.828452 5 4 ack 40 ------- 1 5.4 4.4 3 201
r 0.829002 3 4 tcp 1040 ------- 1 3.3 4.3 3 199
+ 0.829002 4 3 ack 40 ------- 1 4.3 3.3 3 202
- 0.829002 4 3 ack 40 ------- 1 4.3 3.3 3 202
+ 0.830216 0 5 tcp 1040 ------- 1 0.4 5.0 13 203
- 0.830216 0 5 tcp 1040 ------- 1 0.4 5.0 13 203
+ 0.832691 3 4 tcp 1040 ------- 1 3.3 4.3 4 204
- 0.832691 3 4 tcp 1040 ------- 1 3.3 4.3 4 204
+ 0.837986 0 1 tcp 1040 ------- 1 0.0 1.0 4 205
- 0.837986 0 1 tcp 1040 ------- 1 0.0 1.0 4 205
r 0.838248 1 2 tcp 1040 ------- 1 1.1 2.1 5 200
+ 0.838248 2 1 ack 40 ------- 1 2.1 1.1 5 206
- 0.838248 2 1 ack 40 ------- 1 2.1 1.1 5 206
r 0.838455 5 4 ack 40 ------- 1 5.4 4.4 3 201
r 0.839006 4 3 ack 40 ------- 1 4.3 3.3 3 202
r 0.8403 0 5 tcp 1040 ------- 1 0.4 5.0 13 203
+ 0.8403 5 0 ack 40 ------- 1 5.0 0.4 13 207
- 0.8403 5 0 ack 40 ------- 1 5.0 0.4 13 207
r 0.842774 3 4 tcp 1040 ------- 1 3.3 4.3 4 204
+ 0.842774 4 3 ack 40 ------- 1 4.3 3.3 4 208
- 0.842774 4 3 ack 40 ------- 1 4.3 3.3 4 208
r 0.848069 0 1 tcp 1040 ------- 1 0.0 1.0 4 205
+ 0.848069 1 0 ack 40 ------- 1 1.0 0.0 4 209
- 0.848069 1 0 ack 40 ------- 1 1.0 0.0 4 209
r 0.848251 2 1 ack 40 ------- 1 2.1 1.1 5 206
r 0.850303 5 0 ack 40 ------- 1 5.0 0.4 13 207
r 0.852777 4 3 ack 40 ------- 1 4.3 3.3 4 208
r 0.858072 1 0 ack 40 ------- 1 1.0 0.0 4 209
+ 0.859576 1 3 tcp 1040 ------- 1 1.2 3.1 8 210
- 0.859576 1 3 tcp 1040 ------- 1 1.2 3.1 8 210
+ 0.867476 3 4 tcp 1040 ------- 1 3.3 4.3 5 211
- 0.867476 3 4 tcp 1040 ------- 1 3.3 4.3 5 211
r 0.869659 1 3 tcp 1040 ------- 1 1.2 3.1 8 210
+ 0.869659 3 1 ack 40 ------- 1 3.1 1.2 8 212
- 0.869659 3 1 ack 40 ------- 1 3.1 1.2 8 212
+ 0.873927 2 3 tcp 1040 ---A--- 1 2.2 3.2 7 213
- 0.873927 2 3 tcp 1040 ---A--- 1 2.2 3.2 7 213
r 0.877559 3 4 tcp 1040 ------- 1 3.3 4.3 5 211
+ 0.877559 4 3 ack 40 ------- 1 4.3 3.3 5 214
- 0.877559 4 3 ack 40 ------- 1 4.3 3.3 5 214
+ 0.87818 1 3 tcp 1040 ------- 1 1.2 3.1 9 215
- 0.87818 1 3 tcp 1040 ------- 1 1.2 3.1 9 215
r 0.879662 3 1 ack 40 ------- 1 3.1 1.2 8 212
r 0.88401 2 3 tcp 1040 ---A--- 1 2.2 3.2 7 213
+ 0.88401 3 2 ack 40 ------- 1 3.2 2.2 7 216