+ 0.205523 2 4 tcp 40 ------- 1 2.3 4.2 0 0
- 0.205523 2 4 tcp 40 ------- 1 2.3 4.2 0 0
+ 0.209988 0 5 tcp 40 ------- 1 0.4 5.0 0 1
- 0.209988 0 5 tcp 40 ------- 1 0.4 5.0 0 1
+ 0.211502 2 5 tcp 40 ------- 1 2.4 5.2 0 2
- 0.211502 2 5 tcp 40 ------- 1 2.4 5.2 0 2
+ 0.211941 2 3 tcp 40 ------- 1 2.2 3.2 0 3
- 0.211941 2 3 tcp 40 ------- 1 2.2 3.2 0 3
r 0.215555 2 4 tcp 40 ------- 1 2.3 4.2 0 0
+ 0.215555 4 2 ack 40 ------- 1 4.2 2.3 0 4
- 0.215555 4 2 ack 40 ------- 1 4.2 2.3 0 4
+ 0.216122 0 2 tcp 40 ------- 1 0.1 2.0 0 5
- 0.216122 0 2 tcp 40 ------- 1 0.1 2.0 0 5
r 0.22002 0 5 tcp 40 ------- 1 0.4 5.0 0 1
+ 0.22002 5 0 ack 40 ------- 1 5.0 0.4 0 6
- 0.22002 5 0 ack 40 ------- 1 5.0 0.4 0 6
r 0.221534 2 5 tcp 40 ------- 1 2.4 5.2 0 2
+ 0.221534 5 2 ack 40 ------- 1 5.2 2.4 0 7
- 0.221534 5 2 ack 40 ------- 1 5.2 2.4 0 7
r 0.221973 2 3 tcp 40 ------- 1 2.2 3.2 0 3
+ 0.221973 3 2 ack 40 ------- 1 3.2 2.2 0 8
- 0.221973 3 2 ack 40 ------- 1 3.2 2.2 0 8
r 0.225587 4 2 ack 40 ------- 1 4.2 2.3 0 4
+ 0.225587 2 4 tcp 1040 ------- 1 2.3 4.2 1 9
- 0.225587 2 4 tcp 1040 ------- 1 2.3 4.2 1 9
r 0.226154 0 2 tcp 40 ------- 1 0.1 2.0 0 5
+ 0.226154 2 0 ack 40 ------- 1 2.0 0.1 0 10
- 0.226154 2 0 ack 40 ------- 1 2.0 0.1 0 10
+ 0.22715 0 4 tcp 40 ------- 1 0.3 4.0 0 11
- 0.22715 0 4 tcp 40 ------- 1 0.3 4.0 0 11
r 0.230052 5 0 ack 40 ------- 1 5.0 0.4 0 6
+ 0.230052 0 5 tcp 1040 ------- 1 0.4 5.0 1 12
- 0.230052 0 5 tcp 1040 ------- 1 0.4 5.0 1 12
r 0.231566 5 2 ack 40 ------- 1 5.2 2.4 0 7
+ 0.231566 2 5 tcp 1040 ------- 1 2.4 5.2 1 13
- 0.231566 2 5 tcp 1040 ------- 1 2.4 5.2 1 13
r 0.232005 3 2 ack 40 ------- 1 3.2 2.2 0 8
+ 0.232005 2 3 tcp 1040 ------- 1 2.2 3.2 1 14
- 0.232005 2 3 tcp 1040 ------- 1 2.2 3.2 1 14
r 0.236186 2 0 ack 40 ------- 1 2.0 0.1 0 10
+ 0.236186 0 2 tcp 1040 ------- 1 0.1 2.0 1 15
- 0.236186 0 2 tcp 1040 ------- 1 0.1 2.0 1 15
r 0.236419 2 4 tcp 1040 ------- 1 2.3 4.2 1 9
+ 0.236419 4 2 ack 40 ------- 1 4.2 2.3 1 16
- 0.236419 4 2 ack 40 ------- 1 4.2 2.3 1 16
r 0.237182 0 4 tcp 40 ------- 1 0.3 4.0 0 11
+ 0.237182 4 0 ack 40 ------- 1 4.0 0.3 0 17
- 0.237182 4 0 ack 40 ------- 1 4.0 0.3 0 17
+ 0.238957 0 3 tcp 40 ------- 1 0.2 3.0 0 18
- 0.238957 0 3 tcp 40 ------- 1 0.2 3.0 0 18
r 0.240884 0 5 tcp 1040 ------- 1 0.4 5.0 1 12
+ 0.240884 5 0 ack 40 ------- 1 5.0 0.4 1 19
- 0.240884 5 0 ack 40 ------- 1 5.0 0.4 1 19
r 0.242398 2 5 tcp 1040 ------- 1 2.4 5.2 1 13
+ 0.242398 5 2 ack 40 ------- 1 5.2 2.4 1 20
- 0.242398 5 2 ack 40 ------- 1 5.2 2.4 1 20
r 0.242837 2 3 tcp 1040 ------- 1 2.2 3.2 1 14
+ 0.242837 3 2 ack 40 ------- 1 3.2 2.2 1 21
- 0.242837 3 2 ack 40 ------- 1 3.2 2.2 1 21
r 0.246451 4 2 ack 40 ------- 1 4.2 2.3 1 16
r 0.247018 0 2 tcp 1040 ------- 1 0.1 2.0 1 15
+ 0.247018 2 0 ack 40 ------- 1 2.0 0.1 1 22
- 0.247018 2 0 ack 40 ------- 1 2.0 0.1 1 22
r 0.247214 4 0 ack 40 ------- 1 4.0 0.3 0 17
+ 0.247214 0 4 tcp 1040 ------- 1 0.3 4.0 1 23
- 0.247214 0 4 tcp 1040 ------- 1 0.3 4.0 1 23
r 0.248989 0 3 tcp 40 ------- 1 0.2 3.0 0 18
+ 0.248989 3 0 ack 40 ------- 1 3.0 0.2 0 24
- 0.248989 3 0 ack 40 ------- 1 3.0 0.2 0 24
r 0.250916 5 0 ack 40 ------- 1 5.0 0.4 1 19
+ 0.252194 2 3 tcp 1040 ------- 1 2.2 3.2 2 25
- 0.252194 2 3 tcp 1040 ------- 1 2.2 3.2 2 25
r 0.25243 5 2 ack 40 ------- 1 5.2 2.4 1 20
r 0.252869 3 2 ack 40 ------- 1 3.2 2.2 1 21
r 0.25705 2 0 ack 40 ------- 1 2.0 0.1 1 22
+ 0.257438 2 4 tcp 1040 ------- 1 2.3 4.2 2 26
- 0.257438 2 4 tcp 1040 ------- 1 2.3 4.2 2 26
r 0.258046 0 4 tcp 1040 ------- 1 0.3 4.0 1 23
+ 0.258046 4 0 ack 40 ------- 1 4.0 0.3 1 27
- 0.258046 4 0 ack 40 ------- 1 4.0 0.3 1 27
r 0.259021 3 0 ack 40 ------- 1 3.0 0.2 0 24
+ 0.259021 0 3 tcp 1040 ------- 1 0.2 3.0 1 28
- 0.259021 0 3 tcp 1040 ------- 1 0.2 3.0 1 28
+ 0.263008 0 4 tcp 1040 ------- 1 0.3 4.0 2 29
- 0.263008 0 4 tcp 1040 ------- 1 0.3 4.0 2 29
r 0.263026 2 3 tcp 1040 ------- 1 2.2 3.2 2 25
+ 0.263026 3 2 ack 40 ------- 1 3.2 2.2 2 30
- 0.263026 3 2 ack 40 ------- 1 3.2 2.2 2 30
+ 0.265358 2 3 tcp 1040 ------- 1 2.2 3.2 3 31
- 0.265358 2 3 tcp 1040 ------- 1 2.2 3.2 3 31
r 0.268078 4 0 ack 40 ------- 1 4.0 0.3 1 27
r 0.26827 2 4 tcp 1040 ------- 1 2.3 4.2 2 26
+ 0.26827 4 2 ack 40 ------- 1 4.2 2.3 2 32
- 0.26827 4 2 ack 40 ------- 1 4.2 2.3 2 32
r 0.269853 0 3 tcp 1040 ------- 1 0.2 3.0 1 28
+ 0.269853 3 0 ack 40 ------- 1 3.0 0.2 1 33
- 0.269853 3 0 ack 40 ------- 1 3.0 0.2 1 33
r 0.273058 3 2 ack 40 ------- 1 3.2 2.2 2 30
r 0.27384 0 4 tcp 1040 ------- 1 0.3 4.0 2 29
+ 0.27384 4 0 ack 40 ------- 1 4.0 0.3 2 34
- 0.27384 4 0 ack 40 ------- 1 4.0 0.3 2 34
r 0.27619 2 3 tcp 1040 ------- 1 2.2 3.2 3 31
+ 0.27619 3 2 ack 40 ------- 1 3.2 2.2 3 35
- 0.27619 3 2 ack 40 ------- 1 3.2 2.2 3 35
r 0.278302 4 2 ack 40 ------- 1 4.2 2.3 2 32
r 0.279885 3 0 ack 40 ------- 1 3.0 0.2 1 33
r 0.283872 4 0 ack 40 ------- 1 4.0 0.3 2 34
r 0.286222 3 2 ack 40 ------- 1 3.2 2.2 3 35
+ 0.290259 1 2 tcp 40 ------- 1 1.1 2.1 0 36
- 0.290259 1 2 tcp 40 ------- 1 1.1 2.1 0 36
+ 0.290583 1 4 tcp 40 ------- 1 1.3 4.1 0 37
- 0.290583 1 4 tcp 40 ------- 1 1.3 4.1 0 37
+ 0.299686 0 3 tcp 1040 ------- 1 0.2 3.0 2 38
- 0.299686 0 3 tcp 1040 ------- 1 0.2 3.0 2 38
r 0.300291 1 2 tcp 40 ------- 1 1.1 2.1 0 36
+ 0.300291 2 1 ack 40 ------- 1 2.1 1.1 0 39
- 0.300291 2 1 ack 40 ------- 1 2.1 1.1 0 39
r 0.300615 1 4 tcp 40 ------- 1 1.3 4.1 0 37
+ 0.300615 4 1 ack 40 ------- 1 4.1 1.3 0 40
- 0.300615 4 1 ack 40 ------- 1 4.1 1.3 0 40
r 0.310323 2 1 ack 40 ------- 1 2.1 1.1 0 39
+ 0.310323 1 2 tcp 1040 ------- 1 1.1 2.1 1 41
- 0.310323 1 2 tcp 1040 ------- 1 1.1 2.1 1 41
r 0.310518 0 3 tcp 1040 ------- 1 0.2 3.0 2 38
+ 0.310518 3 0 ack 40 ------- 1 3.0 0.2 2 42
- 0.310518 3 0 ack 40 ------- 1 3.0 0.2 2 42
r 0.310647 4 1 ack 40 ------- 1 4.1 1.3 0 40
+ 0.310647 1 4 tcp 1040 ------- 1 1.3 4.1 1 43
- 0.310647 1 4 tcp 1040 ------- 1 1.3 4.1 1 43
+ 0.319153 0 5 tcp 1040 ------- 1 0.4 5.0 2 44
- 0.319153 0 5 tcp 1040 ------- 1 0.4 5.0 2 44
r 0.32055 3 0 ack 40 ------- 1 3.0 0.2 2 42
r 0.321155 1 2 tcp 1040 ------- 1 1.1 2.1 1 41
+ 0.321155 2 1 ack 40 ------- 1 2.1 1.1 1 45
- 0.321155 2 1 ack 40 ------- 1 2.1 1.1 1 45
r 0.321479 1 4 tcp 1040 ------- 1 1.3 4.1 1 43
+ 0.321479 4 1 ack 40 ------- 1 4.1 1.3 1 46
- 0.321479 4 1 ack 40 ------- 1 4.1 1.3 1 46
+ 0.321915 0 4 tcp 1040 ------- 1 0.3 4.0 3 47
- 0.321915 0 4 tcp 1040 ------- 1 0.3 4.0 3 47
+ 0.32738 0 4 tcp 1040 ------- 1 0.3 4.0 4 48
- 0.32738 0 4 tcp 1040 ------- 1 0.3 4.0 4 48
r 0.329985 0 5 tcp 1040 ------- 1 0.4 5.0 2 44
+ 0.329985 5 0 ack 40 ------- 1 5.0 0.4 2 49
- 0.329985 5 0 ack 40 ------- 1 5.0 0.4 2 49
r 0.331187 2 1 ack 40 ------- 1 2.1 1.1 1 45
r 0.331511 4 1 ack 40 ------- 1 4.1 1.3 1 46
r 0.332747 0 4 tcp 1040 ------- 1 0.3 4.0 3 47
+ 0.332747 4 0 ack 40 ------- 1 4.0 0.3 3 50
- 0.332747 4 0 ack 40 ------- 1 4.0 0.3 3 50
r 0.338212 0 4 tcp 1040 ------- 1 0.3 4.0 4 48
+ 0.338212 4 0 ack 40 ------- 1 4.0 0.3 4 51
- 0.338212 4 0 ack 40 ------- 1 4.0 0.3 4 51
r 0.340017 5 0 ack 40 ------- 1 5.0 0.4 2 49
+ 0.342202 0 1 tcp 40 ------- 1 0.0 1.0 0 52
- 0.342202 0 1 tcp 40 ------- 1 0.0 1.0 0 52
r 0.342779 4 0 ack 40 ------- 1 4.0 0.3 3 50
+ 0.343362 0 5 tcp 1040 ------- 1 0.4 5.0 3 53
- 0.343362 0 5 tcp 1040 ------- 1 0.4 5.0 3 53
r 0.348244 4 0 ack 40 ------- 1 4.0 0.3 4 51
+ 0.350764 2 3 tcp 1040 ------- 1 2.2 3.2 4 54
- 0.350764 2 3 tcp 1040 ------- 1 2.2 3.2 4 54
+ 0.351992 0 2 tcp 1040 ------- 1 0.1 2.0 2 55
- 0.351992 0 2 tcp 1040 ------- 1 0.1 2.0 2 55
r 0.352234 0 1 tcp 40 ------- 1 0.0 1.0 0 52
+ 0.352234 1 0 ack 40 ------- 1 1.0 0.0 0 56
- 0.352234 1 0 ack 40 ------- 1 1.0 0.0 0 56
+ 0.353167 0 4 tcp 1040 ------- 1 0.3 4.0 5 57
- 0.353167 0 4 tcp 1040 ------- 1 0.3 4.0 5 57
r 0.354194 0 5 tcp 1040 ------- 1 0.4 5.0 3 53
+ 0.354194 5 0 ack 40 ------- 1 5.0 0.4 3 58
- 0.354194 5 0 ack 40 ------- 1 5.0 0.4 3 58
+ 0.354421 0 2 tcp 1040 ------- 1 0.1 2.0 3 59
- 0.354421 0 2 tcp 1040 ------- 1 0.1 2.0 3 59
r 0.361596 2 3 tcp 1040 ------- 1 2.2 3.2 4 54
+ 0.361596 3 2 ack 40 ------- 1 3.2 2.2 4 60
- 0.361596 3 2 ack 40 ------- 1 3.2 2.2 4 60
r 0.362266 1 0 ack 40 ------- 1 1.0 0.0 0 56
+ 0.362266 0 1 tcp 1040 ------- 1 0.0 1.0 1 61
- 0.362266 0 1 tcp 1040 ------- 1 0.0 1.0 1 61
r 0.362824 0 2 tcp 1040 ------- 1 0.1 2.0 2 55
+ 0.362824 2 0 ack 40 ------- 1 2.0 0.1 2 62
- 0.362824 2 0 ack 40 ------- 1 2.0 0.1 2 62
r 0.363999 0 4 tcp 1040 ------- 1 0.3 4.0 5 57
+ 0.363999 4 0 ack 40 ------- 1 4.0 0.3 5 63
- 0.363999 4 0 ack 40 ------- 1 4.0 0.3 5 63
r 0.364226 5 0 ack 40 ------- 1 5.0 0.4 3 58
r 0.365253 0 2 tcp 1040 ------- 1 0.1 2.0 3 59
+ 0.365253 2 0 ack 40 ------- 1 2.0 0.1 3 64
- 0.365253 2 0 ack 40 ------- 1 2.0 0.1 3 64
+ 0.36747 1 5 tcp 40 ------- 1 1.4 5.1 0 65
- 0.36747 1 5 tcp 40 ------- 1 1.4 5.1 0 65
r 0.371628 3 2 ack 40 ------- 1 3.2 2.2 4 60
r 0.372856 2 0 ack 40 ------- 1 2.0 0.1 2 62
r 0.373098 0 1 tcp 1040 ------- 1 0.0 1.0 1 61
+ 0.373098 1 0 ack 40 ------- 1 1.0 0.0 1 66
- 0.373098 1 0 ack 40 ------- 1 1.0 0.0 1 66
r 0.374031 4 0 ack 40 ------- 1 4.0 0.3 5 63
r 0.375285 2 0 ack 40 ------- 1 2.0 0.1 3 64
r 0.377502 1 5 tcp 40 ------- 1 1.4 5.1 0 65
+ 0.377502 5 1 ack 40 ------- 1 5.1 1.4 0 67
- 0.377502 5 1 ack 40 ------- 1 5.1 1.4 0 67
+ 0.379755 0 5 tcp 1040 ------- 1 0.4 5.0 4 68
- 0.379755 0 5 tcp 1040 ------- 1 0.4 5.0 4 68
r 0.38313 1 0 ack 40 ------- 1 1.0 0.0 1 66
r 0.387534 5 1 ack 40 ------- 1 5.1 1.4 0 67
+ 0.387534 1 5 tcp 1040 ------- 1 1.4 5.1 1 69
- 0.387534 1 5 tcp 1040 ------- 1 1.4 5.1 1 69
r 0.390587 0 5 tcp 1040 ------- 1 0.4 5.0 4 68
+ 0.390587 5 0 ack 40 ------- 1 5.0 0.4 4 70
- 0.390587 5 0 ack 40 ------- 1 5.0 0.4 4 70
+ 0.391446 2 4 tcp 1040 ------- 1 2.3 4.2 3 71
- 0.391446 2 4 tcp 1040 ------- 1 2.3 4.2 3 71
+ 0.394245 0 5 tcp 1040 ------- 1 0.4 5.0 5 72
- 0.394245 0 5 tcp 1040 ------- 1 0.4 5.0 5 72
r 0.398366 1 5 tcp 1040 ------- 1 1.4 5.1 1 69
+ 0.398366 5 1 ack 40 ------- 1 5.1 1.4 1 73
- 0.398366 5 1 ack 40 ------- 1 5.1 1.4 1 73
r 0.400619 5 0 ack 40 ------- 1 5.0 0.4 4 70
+ 0.402265 1 4 tcp 1040 ------- 1 1.3 4.1 2 74
- 0.402265 1 4 tcp 1040 ------- 1 1.3 4.1 2 74
r 0.402278 2 4 tcp 1040 ------- 1 2.3 4.2 3 71
+ 0.402278 4 2 ack 40 ------- 1 4.2 2.3 3 75
- 0.402278 4 2 ack 40 ------- 1 4.2 2.3 3 75
r 0.405077 0 5 tcp 1040 ------- 1 0.4 5.0 5 72
+ 0.405077 5 0 ack 40 ------- 1 5.0 0.4 5 76
- 0.405077 5 0 ack 40 ------- 1 5.0 0.4 5 76
r 0.408398 5 1 ack 40 ------- 1 5.1 1.4 1 73
r 0.41231 4 2 ack 40 ------- 1 4.2 2.3 3 75
r 0.413097 1 4 tcp 1040 ------- 1 1.3 4.1 2 74
+ 0.413097 4 1 ack 40 ------- 1 4.1 1.3 2 77
- 0.413097 4 1 ack 40 ------- 1 4.1 1.3 2 77
r 0.415109 5 0 ack 40 ------- 1 5.0 0.4 5 76
+ 0.418898 3 4 tcp 40 ------- 1 3.3 4.3 0 78
- 0.418898 3 4 tcp 40 ------- 1 3.3 4.3 0 78
+ 0.420975 2 5 tcp 1040 ------- 1 2.4 5.2 2 79
- 0.420975 2 5 tcp 1040 ------- 1 2.4 5.2 2 79
+ 0.421459 1 3 tcp 40 ------- 1 1.2 3.1 0 80
- 0.421459 1 3 tcp 40 ------- 1 1.2 3.1 0 80
r 0.423129 4 1 ack 40 ------- 1 4.1 1.3 2 77
+ 0.425022 0 5 tcp 1040 ------- 1 0.4 5.0 6 81
- 0.425022 0 5 tcp 1040 ------- 1 0.4 5.0 6 81
+ 0.425405 0 2 tcp 1040 ------- 1 0.1 2.0 4 82
- 0.425405 0 2 tcp 1040 ------- 1 0.1 2.0 4 82
r 0.42893 3 4 tcp 40 ------- 1 3.3 4.3 0 78
+ 0.42893 4 3 ack 40 ------- 1 4.3 3.3 0 83
- 0.42893 4 3 ack 40 ------- 1 4.3 3.3 0 83
r 0.431491 1 3 tcp 40 ------- 1 1.2 3.1 0 80
+ 0.431491 3 1 ack 40 ------- 1 3.1 1.2 0 84
- 0.431491 3 1 ack 40 ------- 1 3.1 1.2 0 84
r 0.431807 2 5 tcp 1040 ------- 1 2.4 5.2 2 79
+ 0.431807 5 2 ack 40 ------- 1 5.2 2.4 2 85
- 0.431807 5 2 ack 40 ------- 1 5.2 2.4 2 85
r 0.435854 0 5 tcp 1040 ------- 1 0.4 5.0 6 81
+ 0.435854 5 0 ack 40 ------- 1 5.0 0.4 6 86
- 0.435854 5 0 ack 40 ------- 1 5.0 0.4 6 86
r 0.436237 0 2 tcp 1040 ------- 1 0.1 2.0 4 82
+ 0.436237 2 0 ack 40 ------- 1 2.0 0.1 4 87
- 0.436237 2 0 ack 40 ------- 1 2.0 0.1 4 87
+ 0.438799 0 2 tcp 1040 ------- 1 0.1 2.0 5 88
- 0.438799 0 2 tcp 1040 ------- 1 0.1 2.0 5 88
r 0.438962 4 3 ack 40 ------- 1 4.3 3.3 0 83
+ 0.438962 3 4 tcp 1040 ------- 1 3.3 4.3 1 89
- 0.438962 3 4 tcp 1040 ------- 1 3.3 4.3 1 89
+ 0.441505 2 5 tcp 1040 ------- 1 2.4 5.2 3 90
- 0.441505 2 5 tcp 1040 ------- 1 2.4 5.2 3 90
r 0.441523 3 1 ack 40 ------- 1 3.1 1.2 0 84
+ 0.441523 1 3 tcp 1040 ------- 1 1.2 3.1 1 91
- 0.441523 1 3 tcp 1040 ------- 1 1.2 3.1 1 91
+ 0.441523 1 3 tcp 1040 ------- 1 1.2 3.1 2 92
r 0.441839 5 2 ack 40 ------- 1 5.2 2.4 2 85
- 0.442355 1 3 tcp 1040 ------- 1 1.2 3.1 2 92
r 0.445886 5 0 ack 40 ------- 1 5.0 0.4 6 86
r 0.446269 2 0 ack 40 ------- 1 2.0 0.1 4 87
r 0.449631 0 2 tcp 1040 ------- 1 0.1 2.0 5 88
+ 0.449631 2 0 ack 40 ------- 1 2.0 0.1 5 93
- 0.449631 2 0 ack 40 ------- 1 2.0 0.1 5 93
r 0.449794 3 4 tcp 1040 ------- 1 3.3 4.3 1 89
+ 0.449794 4 3 ack 40 ------- 1 4.3 3.3 1 94
- 0.449794 4 3 ack 40 ------- 1 4.3 3.3 1 94
r 0.452337 2 5 tcp 1040 ------- 1 2.4 5.2 3 90
+ 0.452337 5 2 ack 40 ------- 1 5.2 2.4 3 95
- 0.452337 5 2 ack 40 ------- 1 5.2 2.4 3 95
r 0.452355 1 3 tcp 1040 ------- 1 1.2 3.1 1 91
+ 0.452355 3 1 ack 40 ------- 1 3.1 1.2 1 96
- 0.452355 3 1 ack 40 ------- 1 3.1 1.2 1 96
r 0.453187 1 3 tcp 1040 ------- 1 1.2 3.1 2 92
+ 0.453187 3 1 ack 40 ------- 1 3.1 1.2 2 97
- 0.453187 3 1 ack 40 ------- 1 3.1 1.2 2 97
+ 0.454389 2 4 tcp 1040 ------- 1 2.3 4.2 4 98
- 0.454389 2 4 tcp 1040 ------- 1 2.3 4.2 4 98
+ 0.456761 0 5 tcp 1040 ------- 1 0.4 5.0 7 99
- 0.456761 0 5 tcp 1040 ------- 1 0.4 5.0 7 99
r 0.459663 2 0 ack 40 ------- 1 2.0 0.1 5 93
r 0.459826 4 3 ack 40 ------- 1 4.3 3.3 1 94
r 0.462369 5 2 ack 40 ------- 1 5.2 2.4 3 95
r 0.462387 3 1 ack 40 ------- 1 3.1 1.2 1 96
r 0.463219 3 1 ack 40 ------- 1 3.1 1.2 2 97
+ 0.463569 2 5 tcp 1040 ------- 1 2.4 5.2 4 100
- 0.463569 2 5 tcp 1040 ------- 1 2.4 5.2 4 100
r 0.465221 2 4 tcp 1040 ------- 1 2.3 4.2 4 98
+ 0.465221 4 2 ack 40 ------- 1 4.2 2.3 4 101
- 0.465221 4 2 ack 40 ------- 1 4.2 2.3 4 101
r 0.467593 0 5 tcp 1040 ------- 1 0.4 5.0 7 99
+ 0.467593 5 0 ack 40 ------- 1 5.0 0.4 7 102
- 0.467593 5 0 ack 40 ------- 1 5.0 0.4 7 102
+ 0.467772 0 3 tcp 1040 ------- 1 0.2 3.0 3 103
- 0.467772 0 3 tcp 1040 ------- 1 0.2 3.0 3 103
+ 0.469473 0 2 tcp 1040 ------- 1 0.1 2.0 6 104
- 0.469473 0 2 tcp 1040 ------- 1 0.1 2.0 6 104
r 0.474401 2 5 tcp 1040 ------- 1 2.4 5.2 4 100
+ 0.474401 5 2 ack 40 ------- 1 5.2 2.4 4 105
- 0.474401 5 2 ack 40 ------- 1 5.2 2.4 4 105
r 0.475253 4 2 ack 40 ------- 1 4.2 2.3 4 101
r 0.477625 5 0 ack 40 ------- 1 5.0 0.4 7 102
r 0.478604 0 3 tcp 1040 ------- 1 0.2 3.0 3 103
+ 0.478604 3 0 ack 40 ------- 1 3.0 0.2 3 106
- 0.478604 3 0 ack 40 ------- 1 3.0 0.2 3 106
r 0.480305 0 2 tcp 1040 ------- 1 0.1 2.0 6 104
+ 0.480305 2 0 ack 40 ------- 1 2.0 0.1 6 107
- 0.480305 2 0 ack 40 ------- 1 2.0 0.1 6 107
+ 0.483954 2 5 tcp 1040 ------- 1 2.4 5.2 5 108
- 0.483954 2 5 tcp 1040 ------- 1 2.4 5.2 5 108
+ 0.484039 3 5 tcp 40 ------- 1 3.4 5.3 0 109
- 0.484039 3 5 tcp 40 ------- 1 3.4 5.3 0 109
r 0.484433 5 2 ack 40 ------- 1 5.2 2.4 4 105
+ 0.485103 1 3 tcp 1040 ------- 1 1.2 3.1 3 110
- 0.485103 1 3 tcp 1040 ------- 1 1.2 3.1 3 110
r 0.488636 3 0 ack 40 ------- 1 3.0 0.2 3 106
+ 0.488725 1 4 tcp 1040 ------- 1 1.3 4.1 3 111
- 0.488725 1 4 tcp 1040 ------- 1 1.3 4.1 3 111
r 0.490337 2 0 ack 40 ------- 1 2.0 0.1 6 107
+ 0.492136 0 3 tcp 1040 ------- 1 0.2 3.0 4 112
- 0.492136 0 3 tcp 1040 ------- 1 0.2 3.0 4 112
r 0.494071 3 5 tcp 40 ------- 1 3.4 5.3 0 109
+ 0.494071 5 3 ack 40 ------- 1 5.3 3.4 0 113
- 0.494071 5 3 ack 40 ------- 1 5.3 3.4 0 113
r 0.494786 2 5 tcp 1040 ------- 1 2.4 5.2 5 108
+ 0.494786 5 2 ack 40 ------- 1 5.2 2.4 5 114
- 0.494786 5 2 ack 40 ------- 1 5.2 2.4 5 114
r 0.495935 1 3 tcp 1040 ------- 1 1.2 3.1 3 110
+ 0.495935 3 1 ack 40 ------- 1 3.1 1.2 3 115
- 0.495935 3 1 ack 40 ------- 1 3.1 1.2 3 115
r 0.499557 1 4 tcp 1040 ------- 1 1.3 4.1 3 111
+ 0.499557 4 1 ack 40 ------- 1 4.1 1.3 3 116
- 0.499557 4 1 ack 40 ------- 1 4.1 1.3 3 116
+ 0.499834 0 1 tcp 1040 ------- 1 0.0 1.0 2 117
- 0.499834 0 1 tcp 1040 ------- 1 0.0 1.0 2 117
r 0.502968 0 3 tcp 1040 ------- 1 0.2 3.0 4 112
+ 0.502968 3 0 ack 40 ------- 1 3.0 0.2 4 118
- 0.502968 3 0 ack 40 ------- 1 3.0 0.2 4 118
r 0.504103 5 3 ack 40 ------- 1 5.3 3.4 0 113
+ 0.504103 3 5 tcp 1040 ------- 1 3.4 5.3 1 119
- 0.504103 3 5 tcp 1040 ------- 1 3.4 5.3 1 119
r 0.504818 5 2 ack 40 ------- 1 5.2 2.4 5 114
r 0.505967 3 1 ack 40 ------- 1 3.1 1.2 3 115
r 0.509589 4 1 ack 40 ------- 1 4.1 1.3 3 116
+ 0.510491 0 2 tcp 1040 ------- 1 0.1 2.0 7 120
- 0.510491 0 2 tcp 1040 ------- 1 0.1 2.0 7 120
r 0.510666 0 1 tcp 1040 ------- 1 0.0 1.0 2 117
+ 0.510666 1 0 ack 40 ------- 1 1.0 0.0 2 121
- 0.510666 1 0 ack 40 ------- 1 1.0 0.0 2 121
r 0.513 3 0 ack 40 ------- 1 3.0 0.2 4 118
r 0.514935 3 5 tcp 1040 ------- 1 3.4 5.3 1 119
+ 0.514935 5 3 ack 40 ------- 1 5.3 3.4 1 122
- 0.514935 5 3 ack 40 ------- 1 5.3 3.4 1 122
+ 0.515028 0 5 tcp 1040 ------- 1 0.4 5.0 8 123
- 0.515028 0 5 tcp 1040 ------- 1 0.4 5.0 8 123
r 0.520698 1 0 ack 40 ------- 1 1.0 0.0 2 121
r 0.521323 0 2 tcp 1040 ------- 1 0.1 2.0 7 120
+ 0.521323 2 0 ack 40 ------- 1 2.0 0.1 7 124
- 0.521323 2 0 ack 40 ------- 1 2.0 0.1 7 124
+ 0.522953 2 3 tcp 1040 ------- 1 2.2 3.2 5 125
- 0.522953 2 3 tcp 1040 ------- 1 2.2 3.2 5 125
r 0.524967 5 3 ack 40 ------- 1 5.3 3.4 1 122
r 0.52586 0 5 tcp 1040 ------- 1 0.4 5.0 8 123
+ 0.52586 5 0 ack 40 ------- 1 5.0 0.4 8 126
- 0.52586 5 0 ack 40 ------- 1 5.0 0.4 8 126
r 0.531355 2 0 ack 40 ------- 1 2.0 0.1 7 124
+ 0.532171 2 3 tcp 1040 ------- 1 2.2 3.2 6 127
- 0.532171 2 3 tcp 1040 ------- 1 2.2 3.2 6 127
r 0.533785 2 3 tcp 1040 ------- 1 2.2 3.2 5 125
+ 0.533785 3 2 ack 40 ------- 1 3.2 2.2 5 128
- 0.533785 3 2 ack 40 ------- 1 3.2 2.2 5 128
r 0.535892 5 0 ack 40 ------- 1 5.0 0.4 8 126
r 0.543003 2 3 tcp 1040 ------- 1 2.2 3.2 6 127
+ 0.543003 3 2 ack 40 ------- 1 3.2 2.2 6 129
- 0.543003 3 2 ack 40 ------- 1 3.2 2.2 6 129
r 0.543817 3 2 ack 40 ------- 1 3.2 2.2 5 128
+ 0.545594 1 3 tcp 1040 ------- 1 1.2 3.1 4 130
- 0.545594 1 3 tcp 1040 ------- 1 1.2 3.1 4 130
+ 0.551313 0 5 tcp 1040 ------- 1 0.4 5.0 9 131
- 0.551313 0 5 tcp 1040 ------- 1 0.4 5.0 9 131
r 0.553035 3 2 ack 40 ------- 1 3.2 2.2 6 129
r 0.556426 1 3 tcp 1040 ------- 1 1.2 3.1 4 130
+ 0.556426 3 1 ack 40 ------- 1 3.1 1.2 4 132
- 0.556426 3 1 ack 40 ------- 1 3.1 1.2 4 132
+ 0.557655 2 4 tcp 1040 ------- 1 2.3 4.2 5 133
- 0.557655 2 4 tcp 1040 ------- 1 2.3 4.2 5 133
r 0.562145 0 5 tcp 1040 ------- 1 0.4 5.0 9 131
+ 0.562145 5 0 ack 40 ------- 1 5.0 0.4 9 134
- 0.562145 5 0 ack 40 ------- 1 5.0 0.4 9 134
r 0.566458 3 1 ack 40 ------- 1 3.1 1.2 4 132
r 0.568487 2 4 tcp 1040 ------- 1 2.3 4.2 5 133
+ 0.568487 4 2 ack 40 ------- 1 4.2 2.3 5 135
- 0.568487 4 2 ack 40 ------- 1 4.2 2.3 5 135
r 0.572177 5 0 ack 40 ------- 1 5.0 0.4 9 134
+ 0.574087 3 5 tcp 1040 ------- 1 3.4 5.3 2 136
- 0.574087 3 5 tcp 1040 ------- 1 3.4 5.3 2 136
r 0.578519 4 2 ack 40 ------- 1 4.2 2.3 5 135
r 0.584919 3 5 tcp 1040 ------- 1 3.4 5.3 2 136
+ 0.584919 5 3 ack 40 ------- 1 5.3 3.4 2 137
- 0.584919 5 3 ack 40 ------- 1 5.3 3.4 2 137
+ 0.587181 1 4 tcp 1040 ------- 1 1.3 4.1 4 138
- 0.587181 1 4 tcp 1040 ------- 1 1.3 4.1 4 138
+ 0.592465 0 4 tcp 1040 ---A--- 1 0.3 4.0 6 139
- 0.592465 0 4 tcp 1040 ---A--- 1 0.3 4.0 6 139
r 0.594951 5 3 ack 40 ------- 1 5.3 3.4 2 137
r 0.598013 1 4 tcp 1040 ------- 1 1.3 4.1 4 138
+ 0.598013 4 1 ack 40 ------- 1 4.1 1.3 4 140
- 0.598013 4 1 ack 40 ------- 1 4.1 1.3 4 140
+ 0.599822 1 4 tcp 1040 ------- 1 1.3 4.1 5 141
- 0.599822 1 4 tcp 1040 ------- 1 1.3 4.1 5 141
r 0.603297 0 4 tcp 1040 ---A--- 1 0.3 4.0 6 139
+ 0.603297 4 0 ack 40 ------- 1 4.0 0.3 6 142
- 0.603297 4 0 ack 40 ------- 1 4.0 0.3 6 142
r 0.608045 4 1 ack 40 ------- 1 4.1 1.3 4 140
r 0.610654 1 4 tcp 1040 ------- 1 1.3 4.1 5 141
+ 0.610654 4 1 ack 40 ------- 1 4.1 1.3 5 143
- 0.610654 4 1 ack 40 ------- 1 4.1 1.3 5 143
r 0.613329 4 0 ack 40 ------- 1 4.0 0.3 6 142
+ 0.613329 0 4 tcp 1040 ------- 1 0.3 4.0 7 144
- 0.613329 0 4 tcp 1040 ------- 1 0.3 4.0 7 144
r 0.620686 4 1 ack 40 ------- 1 4.1 1.3 5 143
+ 0.620689 0 2 tcp 1040 ------- 1 0.1 2.0 8 145
- 0.620689 0 2 tcp 1040 ------- 1 0.1 2.0 8 145
+ 0.62141 1 4 tcp 1040 ------- 1 1.3 4.1 6 146
- 0.62141 1 4 tcp 1040 ------- 1 1.3 4.1 6 146
r 0.624161 0 4 tcp 1040 ------- 1 0.3 4.0 7 144
+ 0.624161 4 0 ack 40 ------- 1 4.0 0.3 7 147
- 0.624161 4 0 ack 40 ------- 1 4.0 0.3 7 147
r 0.631521 0 2 tcp 1040 ------- 1 0.1 2.0 8 145
+ 0.631521 2 0 ack 40 ------- 1 2.0 0.1 8 148
- 0.631521 2 0 ack 40 ------- 1 2.0 0.1 8 148
r 0.632242 1 4 tcp 1040 ------- 1 1.3 4.1 6 146
+ 0.632242 4 1 ack 40 ------- 1 4.1 1.3 6 149
- 0.632242 4 1 ack 40 ------- 1 4.1 1.3 6 149
r 0.634193 4 0 ack 40 ------- 1 4.0 0.3 7 147
r 0.641553 2 0 ack 40 ------- 1 2.0 0.1 8 148
r 0.642274 4 1 ack 40 ------- 1 4.1 1.3 6 149
+ 0.646312 1 3 tcp 1040 ------- 1 1.2 3.1 5 150
- 0.646312 1 3 tcp 1040 ------- 1 1.2 3.1 5 150
+ 0.649407 1 2 tcp 1040 ---A--- 1 1.1 2.1 2 151
- 0.649407 1 2 tcp 1040 ---A--- 1 1.1 2.1 2 151
+ 0.649482 1 4 tcp 1040 ------- 1 1.3 4.1 7 152
- 0.649482 1 4 tcp 1040 ------- 1 1.3 4.1 7 152
+ 0.652744 4 5 tcp 40 ------- 1 4.4 5.4 0 153
- 0.652744 4 5 tcp 40 ------- 1 4.4 5.4 0 153
r 0.657144 1 3 tcp 1040 ------- 1 1.2 3.1 5 150
+ 0.657144 3 1 ack 40 ------- 1 3.1 1.2 5 154
- 0.657144 3 1 ack 40 ------- 1 3.1 1.2 5 154
r 0.660239 1 2 tcp 1040 ---A--- 1 1.1 2.1 2 151
+ 0.660239 2 1 ack 40 ------- 1 2.1 1.1 2 155
- 0.660239 2 1 ack 40 ------- 1 2.1 1.1 2 155
r 0.660314 1 4 tcp 1040 ------- 1 1.3 4.1 7 152
+ 0.660314 4 1 ack 40 ------- 1 4.1 1.3 7 156
- 0.660314 4 1 ack 40 ------- 1 4.1 1.3 7 156
+ 0.661712 3 4 tcp 1040 ---A--- 1 3.3 4.3 2 157
- 0.661712 3 4 tcp 1040 ---A--- 1 3.3 4.3 2 157
r 0.662776 4 5 tcp 40 ------- 1 4.4 5.4 0 153
+ 0.662776 5 4 ack 40 ------- 1 5.4 4.4 0 158
- 0.662776 5 4 ack 40 ------- 1 5.4 4.4 0 158
+ 0.666776 1 5 tcp 1040 ---A--- 1 1.4 5.1 2 159
- 0.666776 1 5 tcp 1040 ---A--- 1 1.4 5.1 2 159
r 0.667176 3 1 ack 40 ------- 1 3.1 1.2 5 154
+ 0.670061 0 5 tcp 1040 ------- 1 0.4 5.0 10 160
- 0.670061 0 5 tcp 1040 ------- 1 0.4 5.0 10 160
r 0.670271 2 1 ack 40 ------- 1 2.1 1.1 2 155
r 0.670346 4 1 ack 40 ------- 1 4.1 1.3 7 156
r 0.672544 3 4 tcp 1040 ---A--- 1 3.3 4.3 2 157
+ 0.672544 4 3 ack 40 ------- 1 4.3 3.3 2 161
- 0.672544 4 3 ack 40 ------- 1 4.3 3.3 2 161
r 0.672808 5 4 ack 40 ------- 1 5.4 4.4 0 158
+ 0.672808 4 5 tcp 1040 ------- 1 4.4 5.4 1 162
- 0.672808 4 5 tcp 1040 ------- 1 4.4 5.4 1 162
+ 0.673026 1 2 tcp 1040 ------- 1 1.1 2.1 3 163
- 0.673026 1 2 tcp 1040 ------- 1 1.1 2.1 3 163
+ 0.673674 2 5 tcp 1040 ------- 1 2.4 5.2 6 164
- 0.673674 2 5 tcp 1040 ------- 1 2.4 5.2 6 164
r 0.677608 1 5 tcp 1040 ---A--- 1 1.4 5.1 2 159
+ 0.677608 5 1 ack 40 ------- 1 5.1 1.4 2 165
- 0.677608 5 1 ack 40 ------- 1 5.1 1.4 2 165
r 0.680893 0 5 tcp 1040 ------- 1 0.4 5.0 10 160
+ 0.680893 5 0 ack 40 ------- 1 5.0 0.4 10 166
- 0.680893 5 0 ack 40 ------- 1 5.0 0.4 10 166
r 0.682576 4 3 ack 40 ------- 1 4.3 3.3 2 161
r 0.68364 4 5 tcp 1040 ------- 1 4.4 5.4 1 162
+ 0.68364 5 4 ack 40 ------- 1 5.4 4.4 1 167
- 0.68364 5 4 ack 40 ------- 1 5.4 4.4 1 167
r 0.683858 1 2 tcp 1040 ------- 1 1.1 2.1 3 163
+ 0.683858 2 1 ack 40 ------- 1 2.1 1.1 3 168
- 0.683858 2 1 ack 40 ------- 1 2.1 1.1 3 168
r 0.684506 2 5 tcp 1040 ------- 1 2.4 5.2 6 164
+ 0.684506 5 2 ack 40 ------- 1 5.2 2.4 6 169
- 0.684506 5 2 ack 40 ------- 1 5.2 2.4 6 169
+ 0.687489 3 5 tcp 1040 ------- 1 3.4 5.3 3 170
- 0.687489 3 5 tcp 1040 ------- 1 3.4 5.3 3 170
r 0.68764 5 1 ack 40 ------- 1 5.1 1.4 2 165
r 0.690925 5 0 ack 40 ------- 1 5.0 0.4 10 166
r 0.693672 5 4 ack 40 ------- 1 5.4 4.4 1 167
r 0.69389 2 1 ack 40 ------- 1 2.1 1.1 3 168
r 0.694538 5 2 ack 40 ------- 1 5.2 2.4 6 169
+ 0.694868 1 3 tcp 1040 ------- 1 1.2 3.1 6 171
- 0.694868 1 3 tcp 1040 ------- 1 1.2 3.1 6 171
r 0.698321 3 5 tcp 1040 ------- 1 3.4 5.3 3 170
+ 0.698321 5 3 ack 40 ------- 1 5.3 3.4 3 172
- 0.698321 5 3 ack 40 ------- 1 5.3 3.4 3 172
+ 0.705469 1 3 tcp 1040 ------- 1 1.2 3.1 7 173
- 0.705469 1 3 tcp 1040 ------- 1 1.2 3.1 7 173
r 0.7057 1 3 tcp 1040 ------- 1 1.2 3.1 6 171
+ 0.7057 3 1 ack 40 ------- 1 3.1 1.2 6 174
- 0.7057 3 1 ack 40 ------- 1 3.1 1.2 6 174
r 0.708353 5 3 ack 40 ------- 1 5.3 3.4 3 172
+ 0.714731 1 4 tcp 1040 ------- 1 1.3 4.1 8 175
- 0.714731 1 4 tcp 1040 ------- 1 1.3 4.1 8 175
r 0.715732 3 1 ack 40 ------- 1 3.1 1.2 6 174
r 0.716301 1 3 tcp 1040 ------- 1 1.2 3.1 7 173
+ 0.716301 3 1 ack 40 ------- 1 3.1 1.2 7 176
- 0.716301 3 1 ack 40 ------- 1 3.1 1.2 7 176
r 0.725563 1 4 tcp 1040 ------- 1 1.3 4.1 8 175
+ 0.725563 4 1 ack 40 ------- 1 4.1 1.3 8 177
- 0.725563 4 1 ack 40 ------- 1 4.1 1.3 8 177
r 0.726333 3 1 ack 40 ------- 1 3.1 1.2 7 176
+ 0.732315 4 5 tcp 1040 ------- 1 4.4 5.4 2 178
- 0.732315 4 5 tcp 1040 ------- 1 4.4 5.4 2 178
r 0.735595 4 1 ack 40 ------- 1 4.1 1.3 8 177
r 0.743147 4 5 tcp 1040 ------- 1 4.4 5.4 2 178
+ 0.743147 5 4 ack 40 ------- 1 5.4 4.4 2 179
- 0.743147 5 4 ack 40 ------- 1 5.4 4.4 2 179
+ 0.748209 0 1 tcp 1040 ---A--- 1 0.0 1.0 3 180
- 0.748209 0 1 tcp 1040 ---A--- 1 0.0 1.0 3 180
+ 0.752178 0 5 tcp 1040 ------- 1 0.4 5.0 11 181
- 0.752178 0 5 tcp 1040 ------- 1 0.4 5.0 11 181
r 0.753179 5 4 ack 40 ------- 1 5.4 4.4 2 179
+ 0.755758 1 2 tcp 1040 ------- 1 1.1 2.1 4 182
- 0.755758 1 2 tcp 1040 ------- 1 1.1 2.1 4 182
r 0.759041 0 1 tcp 1040 ---A--- 1 0.0 1.0 3 180
+ 0.759041 1 0 ack 40 ------- 1 1.0 0.0 3 183
- 0.759041 1 0 ack 40 ------- 1 1.0 0.0 3 183
r 0.76301 0 5 tcp 1040 ------- 1 0.4 5.0 11 181
+ 0.76301 5 0 ack 40 ------- 1 5.0 0.4 11 184
- 0.76301 5 0 ack 40 ------- 1 5.0 0.4 11 184
r 0.76659 1 2 tcp 1040 ------- 1 1.1 2.1 4 182
+ 0.76659 2 1 ack 40 ------- 1 2.1 1.1 4 185
- 0.76659 2 1 ack 40 ------- 1 2.1 1.1 4 185
r 0.769073 1 0 ack 40 ------- 1 1.0 0.0 3 183
r 0.773042 5 0 ack 40 ------- 1 5.0 0.4 11 184
r 0.776622 2 1 ack 40 ------- 1 2.1 1.1 4 185
+ 0.78173 0 4 tcp 1040 ------- 1 0.3 4.0 8 186
- 0.78173 0 4 tcp 1040 ------- 1 0.3 4.0 8 186
+ 0.782878 0 5 tcp 1040 ------- 1 0.4 5.0 12 187
- 0.782878 0 5 tcp 1040 ------- 1 0.4 5.0 12 187
+ 0.784173 2 5 tcp 1040 ------- 1 2.4 5.2 7 188
- 0.784173 2 5 tcp 1040 ------- 1 2.4 5.2 7 188
r 0.792562 0 4 tcp 1040 ------- 1 0.3 4.0 8 186
+ 0.792562 4 0 ack 40 ------- 1 4.0 0.3 8 189
- 0.792562 4 0 ack 40 ------- 1 4.0 0.3 8 189
+ 0.792623 0 4 tcp 1040 ------- 1 0.3 4.0 9 190
- 0.792623 0 4 tcp 1040 ------- 1 0.3 4.0 9 190
r 0.79371 0 5 tcp 1040 ------- 1 0.4 5.0 12 187
+ 0.79371 5 0 ack 40 ------- 1 5.0 0.4 12 191
- 0.79371 5 0 ack 40 ------- 1 5.0 0.4 12 191
r 0.795005 2 5 tcp 1040 ------- 1 2.4 5.2 7 188
+ 0.795005 5 2 ack 40 ------- 1 5.2 2.4 7 192
- 0.795005 5 2 ack 40 ------- 1 5.2 2.4 7 192
+ 0.799034 1 4 tcp 1040 ------- 1 1.3 4.1 9 193
- 0.799034 1 4 tcp 1040 ------- 1 1.3 4.1 9 193
+ 0.800333 2 5 tcp 1040 ------- 1 2.4 5.2 8 194
- 0.800333 2 5 tcp 1040 ------- 1 2.4 5.2 8 194
r 0.802594 4 0 ack 40 ------- 1 4.0 0.3 8 189
r 0.803455 0 4 tcp 1040 ------- 1 0.3 4.0 9 190
+ 0.803455 4 0 ack 40 ------- 1 4.0 0.3 9 195
- 0.803455 4 0 ack 40 ------- 1 4.0 0.3 9 195
r 0.803742 5 0 ack 40 ------- 1 5.0 0.4 12 191
r 0.805037 5 2 ack 40 ------- 1 5.2 2.4 7 192
r 0.809866 1 4 tcp 1040 ------- 1 1.3 4.1 9 193
+ 0.809866 4 1 ack 40 ------- 1 4.1 1.3 9 196
- 0.809866 4 1 ack 40 ------- 1 4.1 1.3 9 196
r 0.811165 2 5 tcp 1040 ------- 1 2.4 5.2 8 194
+ 0.811165 5 2 ack 40 ------- 1 5.2 2.4 8 197
- 0.811165 5 2 ack 40 ------- 1 5.2 2.4 8 197
r 0.813487 4 0 ack 40 ------- 1 4.0 0.3 9 195
+ 0.818369 4 5 tcp 1040 ------- 1 4.4 5.4 3 198
- 0.818369 4 5 tcp 1040 ------- 1 4.4 5.4 3 198
+ 0.818919 3 4 tcp 1040 ------- 1 3.3 4.3 3 199
- 0.818919 3 4 tcp 1040 ------- 1 3.3 4.3 3 199
r 0.819898 4 1 ack 40 ------- 1 4.1 1.3 9 196
r 0.821197 5 2 ack 40 ------- 1 5.2 2.4 8 197
+ 0.828165 1 2 tcp 1040 ------- 1 1.1 2.1 5 200
- 0.828165 1 2 tcp 1040 ------- 1 1.1 2.1 5 200
r 0.829201 4 5 tcp 1040 ------- 1 4.4 5.4 3 198
+ 0.829201 5 4 ack 40 ------- 1 5.4 4.4 3 201
- 0.829201 5 4 ack 40 ------- 1 5.4 4.4 3 201
r 0.829751 3 4 tcp 1040 ------- 1 3.3 4.3 3 199
+ 0.829751 4 3 ack 40 ------- 1 4.3 3.3 3 202
- 0.829751 4 3 ack 40 ------- 1 4.3 3.3 3 202
+ 0.830216 0 5 tcp 1040 ------- 1 0.4 5.0 13 203
- 0.830216 0 5 tcp 1040 ------- 1 0.4 5.0 13 203
+ 0.832691 3 4 tcp 1040 ------- 1 3.3 4.3 4 204
- 0.832691 3 4 tcp 1040 ------- 1 3.3 4.3 4 204
+ 0.837986 0 1 tcp 1040 ------- 1 0.0 1.0 4 205
- 0.837986 0 1 tcp 1040 ------- 1 0.0 1.0 4 205
r 0.838997 1 2 tcp 1040 ------- 1 1.1 2.1 5 200
+ 0.838997 2 1 ack 40 ------- 1 2.1 1.1 5 206
- 0.838997 2 1 ack 40 ------- 1 2.1 1.1 5 206
r 0.839233 5 4 ack 40 ------- 1 5.4 4.4 3 201
r 0.839783 4 3 ack 40 ------- 1 4.3 3.3 3 202
r 0.841048 0 5 tcp 1040 ------- 1 0.4 5.0 13 203
+ 0.841048 5 0 ack 40 ------- 1 5.0 0.4 13 207
- 0.841048 5 0 ack 40 ------- 1 5.0 0.4 13 207
r 0.843523 3 4 tcp 1040 ------- 1 3.3 4.3 4 204
+ 0.843523 4 3 ack 40 ------- 1 4.3 3.3 4 208
- 0.843523 4 3 ack 40 ------- 1 4.3 3.3 4 208
r 0.848818 0 1 tcp 1040 ------- 1 0.0 1.0 4 205
+ 0.848818 1 0 ack 40 ------- 1 1.0 0.0 4 209
- 0.848818 1 0 ack 40 ------- 1 1.0 0.0 4 209
r 0.849029 2 1 ack 40 ------- 1 2.1 1.1 5 206
r 0.85108 5 0 ack 40 ------- 1 5.0 0.4 13 207
r 0.853555 4 3 ack 40 ------- 1 4.3 3.3 4 208
r 0.85885 1 0 ack 40 ------- 1 1.0 0.0 4 209
+ 0.859576 1 3 tcp 1040 ------- 1 1.2 3.1 8 210
- 0.859576 1 3 tcp 1040 ------- 1 1.2 3.1 8 210
+ 0.867476 3 4 tcp 1040 ------- 1 3.3 4.3 5 211
- 0.867476 3 4 tcp 1040 ------- 1 3.3 4.3 5 211
r 0.870408 1 3 tcp 1040 ------- 1 1.2 3.1 8 210
+ 0.870408 3 1 ack 40 ------- 1 3.1 1.2 8 212
- 0.870408 3 1 ack 40 ------- 1 3.1 1.2 8 212
+ 0.873927 2 3 tcp 1040 ---A--- 1 2.2 3.2 7 213
- 0.873927 2 3 tcp 1040 ---A--- 1 2.2 3.2 7 213
+ 0.87818 1 3 tcp 1040 ------- 1 1.2 3.1 9 214
- 0.87818 1 3 tcp 1040 ------- 1 1.2 3.1 9 214
r 0.878308 3 4 tcp 1040 ------- 1 3.3 4.3 5 211
+ 0.878308 4 3 ack 40 ------- 1 4.3 3.3 5 215
- 0.878308 4 3 ack 40 ------- 1 4.3 3.3 5 215
r 0.88044 3 1 ack 40 ------- 1 3.1 1.2 8 212
r 0.884759 2 3 tcp 1040 ---A--- 1 2.2 3.2 7 213
+ 0.884759 3 2 ack 40 ------- 1 3.2 2.2 7 216