+ 0.205523 2 4 tcp 40 ------- 1 2.3 4.2 0 0
- 0.205523 2 4 tcp 40 ------- 1 2.3 4.2 0 0
+ 0.209988 0 5 tcp 40 ------- 1 0.4 5.0 0 1
- 0.209988 0 5 tcp 40 ------- 1 0.4 5.0 0 1
+ 0.211502 2 5 tcp 40 ------- 1 2.4 5.2 0 2
- 0.211502 2 5 tcp 40 ------- 1 2.4 5.2 0 2
+ 0.211941 2 3 tcp 40 ------- 1 2.2 3.2 0 3
- 0.211941 2 3 tcp 40 ------- 1 2.2 3.2 0 3
r 0.215525 2 4 tcp 40 ------- 1 2.3 4.2 0 0
+ 0.215525 4 2 ack 40 ------- 1 4.2 2.3 0 4
- 0.215525 4 2 ack 40 ------- 1 4.2 2.3 0 4
+ 0.216122 0 2 tcp 40 ------- 1 0.1 2.0 0 5
- 0.216122 0 2 tcp 40 ------- 1 0.1 2.0 0 5
r 0.21999 0 5 tcp 40 ------- 1 0.4 5.0 0 1
+ 0.21999 5 0 ack 40 ------- 1 5.0 0.4 0 6
- 0.21999 5 0 ack 40 ------- 1 5.0 0.4 0 6
r 0.221504 2 5 tcp 40 ------- 1 2.4 5.2 0 2
+ 0.221504 5 2 ack 40 ------- 1 5.2 2.4 0 7
- 0.221504 5 2 ack 40 ------- 1 5.2 2.4 0 7
r 0.221943 2 3 tcp 40 ------- 1 2.2 3.2 0 3
+ 0.221943 3 2 ack 40 ------- 1 3.2 2.2 0 8
- 0.221943 3 2 ack 40 ------- 1 3.2 2.2 0 8
r 0.225526 4 2 ack 40 ------- 1 4.2 2.3 0 4
+ 0.225526 2 4 tcp 1040 ------- 1 2.3 4.2 1 9
- 0.225526 2 4 tcp 1040 ------- 1 2.3 4.2 1 9
r 0.226123 0 2 tcp 40 ------- 1 0.1 2.0 0 5
+ 0.226123 2 0 ack 40 ------- 1 2.0 0.1 0 10
- 0.226123 2 0 ack 40 ------- 1 2.0 0.1 0 10
+ 0.22715 0 4 tcp 40 ------- 1 0.3 4.0 0 11
- 0.22715 0 4 tcp 40 ------- 1 0.3 4.0 0 11
r 0.229991 5 0 ack 40 ------- 1 5.0 0.4 0 6
+ 0.229991 0 5 tcp 1040 ------- 1 0.4 5.0 1 12
- 0.229991 0 5 tcp 1040 ------- 1 0.4 5.0 1 12
r 0.231505 5 2 ack 40 ------- 1 5.2 2.4 0 7
+ 0.231505 2 5 tcp 1040 ------- 1 2.4 5.2 1 13
- 0.231505 2 5 tcp 1040 ------- 1 2.4 5.2 1 13
r 0.231944 3 2 ack 40 ------- 1 3.2 2.2 0 8
+ 0.231944 2 3 tcp 1040 ------- 1 2.2 3.2 1 14
- 0.231944 2 3 tcp 1040 ------- 1 2.2 3.2 1 14
r 0.235568 2 4 tcp 1040 ------- 1 2.3 4.2 1 9
+ 0.235568 4 2 ack 40 ------- 1 4.2 2.3 1 15
- 0.235568 4 2 ack 40 ------- 1 4.2 2.3 1 15
r 0.236125 2 0 ack 40 ------- 1 2.0 0.1 0 10
+ 0.236125 0 2 tcp 1040 ------- 1 0.1 2.0 1 16
- 0.236125 0 2 tcp 1040 ------- 1 0.1 2.0 1 16
r 0.237152 0 4 tcp 40 ------- 1 0.3 4.0 0 11
+ 0.237152 4 0 ack 40 ------- 1 4.0 0.3 0 17
- 0.237152 4 0 ack 40 ------- 1 4.0 0.3 0 17
+ 0.238957 0 3 tcp 40 ------- 1 0.2 3.0 0 18
- 0.238957 0 3 tcp 40 ------- 1 0.2 3.0 0 18
r 0.240033 0 5 tcp 1040 ------- 1 0.4 5.0 1 12
+ 0.240033 5 0 ack 40 ------- 1 5.0 0.4 1 19
- 0.240033 5 0 ack 40 ------- 1 5.0 0.4 1 19
r 0.241547 2 5 tcp 1040 ------- 1 2.4 5.2 1 13
+ 0.241547 5 2 ack 40 ------- 1 5.2 2.4 1 20
- 0.241547 5 2 ack 40 ------- 1 5.2 2.4 1 20
r 0.241986 2 3 tcp 1040 ------- 1 2.2 3.2 1 14
+ 0.241986 3 2 ack 40 ------- 1 3.2 2.2 1 21
- 0.241986 3 2 ack 40 ------- 1 3.2 2.2 1 21
r 0.24557 4 2 ack 40 ------- 1 4.2 2.3 1 15
r 0.246167 0 2 tcp 1040 ------- 1 0.1 2.0 1 16
+ 0.246167 2 0 ack 40 ------- 1 2.0 0.1 1 22
- 0.246167 2 0 ack 40 ------- 1 2.0 0.1 1 22
r 0.247154 4 0 ack 40 ------- 1 4.0 0.3 0 17
+ 0.247154 0 4 tcp 1040 ------- 1 0.3 4.0 1 23
- 0.247154 0 4 tcp 1040 ------- 1 0.3 4.0 1 23
r 0.248958 0 3 tcp 40 ------- 1 0.2 3.0 0 18
+ 0.248958 3 0 ack 40 ------- 1 3.0 0.2 0 24
- 0.248958 3 0 ack 40 ------- 1 3.0 0.2 0 24
r 0.250034 5 0 ack 40 ------- 1 5.0 0.4 1 19
r 0.251548 5 2 ack 40 ------- 1 5.2 2.4 1 20
r 0.251987 3 2 ack 40 ------- 1 3.2 2.2 1 21
+ 0.252194 2 3 tcp 1040 ------- 1 2.2 3.2 2 25
- 0.252194 2 3 tcp 1040 ------- 1 2.2 3.2 2 25
r 0.256168 2 0 ack 40 ------- 1 2.0 0.1 1 22
r 0.257195 0 4 tcp 1040 ------- 1 0.3 4.0 1 23
+ 0.257195 4 0 ack 40 ------- 1 4.0 0.3 1 26
- 0.257195 4 0 ack 40 ------- 1 4.0 0.3 1 26
+ 0.257438 2 4 tcp 1040 ------- 1 2.3 4.2 2 27
- 0.257438 2 4 tcp 1040 ------- 1 2.3 4.2 2 27
r 0.25896 3 0 ack 40 ------- 1 3.0 0.2 0 24
+ 0.25896 0 3 tcp 1040 ------- 1 0.2 3.0 1 28
- 0.25896 0 3 tcp 1040 ------- 1 0.2 3.0 1 28
r 0.262236 2 3 tcp 1040 ------- 1 2.2 3.2 2 25
+ 0.262236 3 2 ack 40 ------- 1 3.2 2.2 2 29
- 0.262236 3 2 ack 40 ------- 1 3.2 2.2 2 29
+ 0.263008 0 4 tcp 1040 ------- 1 0.3 4.0 2 30
- 0.263008 0 4 tcp 1040 ------- 1 0.3 4.0 2 30
+ 0.265358 2 3 tcp 1040 ------- 1 2.2 3.2 3 31
- 0.265358 2 3 tcp 1040 ------- 1 2.2 3.2 3 31
r 0.267197 4 0 ack 40 ------- 1 4.0 0.3 1 26
r 0.26748 2 4 tcp 1040 ------- 1 2.3 4.2 2 27
+ 0.26748 4 2 ack 40 ------- 1 4.2 2.3 2 32
- 0.26748 4 2 ack 40 ------- 1 4.2 2.3 2 32
r 0.269002 0 3 tcp 1040 ------- 1 0.2 3.0 1 28
+ 0.269002 3 0 ack 40 ------- 1 3.0 0.2 1 33
- 0.269002 3 0 ack 40 ------- 1 3.0 0.2 1 33
r 0.272238 3 2 ack 40 ------- 1 3.2 2.2 2 29
r 0.273049 0 4 tcp 1040 ------- 1 0.3 4.0 2 30
+ 0.273049 4 0 ack 40 ------- 1 4.0 0.3 2 34
- 0.273049 4 0 ack 40 ------- 1 4.0 0.3 2 34
r 0.2754 2 3 tcp 1040 ------- 1 2.2 3.2 3 31
+ 0.2754 3 2 ack 40 ------- 1 3.2 2.2 3 35
- 0.2754 3 2 ack 40 ------- 1 3.2 2.2 3 35
r 0.277481 4 2 ack 40 ------- 1 4.2 2.3 2 32
r 0.279003 3 0 ack 40 ------- 1 3.0 0.2 1 33
r 0.283051 4 0 ack 40 ------- 1 4.0 0.3 2 34
r 0.285402 3 2 ack 40 ------- 1 3.2 2.2 3 35
+ 0.290259 1 2 tcp 40 ------- 1 1.1 2.1 0 36
- 0.290259 1 2 tcp 40 ------- 1 1.1 2.1 0 36
+ 0.290583 1 4 tcp 40 ------- 1 1.3 4.1 0 37
- 0.290583 1 4 tcp 40 ------- 1 1.3 4.1 0 37
+ 0.299686 0 3 tcp 1040 ------- 1 0.2 3.0 2 38
- 0.299686 0 3 tcp 1040 ------- 1 0.2 3.0 2 38
r 0.30026 1 2 tcp 40 ------- 1 1.1 2.1 0 36
+ 0.30026 2 1 ack 40 ------- 1 2.1 1.1 0 39
- 0.30026 2 1 ack 40 ------- 1 2.1 1.1 0 39
r 0.300584 1 4 tcp 40 ------- 1 1.3 4.1 0 37
+ 0.300584 4 1 ack 40 ------- 1 4.1 1.3 0 40
- 0.300584 4 1 ack 40 ------- 1 4.1 1.3 0 40
r 0.309728 0 3 tcp 1040 ------- 1 0.2 3.0 2 38
+ 0.309728 3 0 ack 40 ------- 1 3.0 0.2 2 41
- 0.309728 3 0 ack 40 ------- 1 3.0 0.2 2 41
r 0.310262 2 1 ack 40 ------- 1 2.1 1.1 0 39
+ 0.310262 1 2 tcp 1040 ------- 1 1.1 2.1 1 42
- 0.310262 1 2 tcp 1040 ------- 1 1.1 2.1 1 42
r 0.310586 4 1 ack 40 ------- 1 4.1 1.3 0 40
+ 0.310586 1 4 tcp 1040 ------- 1 1.3 4.1 1 43
- 0.310586 1 4 tcp 1040 ------- 1 1.3 4.1 1 43
+ 0.319153 0 5 tcp 1040 ------- 1 0.4 5.0 2 44
- 0.319153 0 5 tcp 1040 ------- 1 0.4 5.0 2 44
r 0.31973 3 0 ack 40 ------- 1 3.0 0.2 2 41
r 0.320304 1 2 tcp 1040 ------- 1 1.1 2.1 1 42
+ 0.320304 2 1 ack 40 ------- 1 2.1 1.1 1 45
- 0.320304 2 1 ack 40 ------- 1 2.1 1.1 1 45
r 0.320627 1 4 tcp 1040 ------- 1 1.3 4.1 1 43
+ 0.320627 4 1 ack 40 ------- 1 4.1 1.3 1 46
- 0.320627 4 1 ack 40 ------- 1 4.1 1.3 1 46
+ 0.321915 0 4 tcp 1040 ------- 1 0.3 4.0 3 47
- 0.321915 0 4 tcp 1040 ------- 1 0.3 4.0 3 47
+ 0.32738 0 4 tcp 1040 ------- 1 0.3 4.0 4 48
- 0.32738 0 4 tcp 1040 ------- 1 0.3 4.0 4 48
r 0.329194 0 5 tcp 1040 ------- 1 0.4 5.0 2 44
+ 0.329194 5 0 ack 40 ------- 1 5.0 0.4 2 49
- 0.329194 5 0 ack 40 ------- 1 5.0 0.4 2 49
r 0.330305 2 1 ack 40 ------- 1 2.1 1.1 1 45
r 0.330629 4 1 ack 40 ------- 1 4.1 1.3 1 46
r 0.331957 0 4 tcp 1040 ------- 1 0.3 4.0 3 47
+ 0.331957 4 0 ack 40 ------- 1 4.0 0.3 3 50
- 0.331957 4 0 ack 40 ------- 1 4.0 0.3 3 50
r 0.337422 0 4 tcp 1040 ------- 1 0.3 4.0 4 48
+ 0.337422 4 0 ack 40 ------- 1 4.0 0.3 4 51
- 0.337422 4 0 ack 40 ------- 1 4.0 0.3 4 51
r 0.339196 5 0 ack 40 ------- 1 5.0 0.4 2 49
r 0.341958 4 0 ack 40 ------- 1 4.0 0.3 3 50
+ 0.342202 0 1 tcp 40 ------- 1 0.0 1.0 0 52
- 0.342202 0 1 tcp 40 ------- 1 0.0 1.0 0 52
+ 0.343362 0 5 tcp 1040 ------- 1 0.4 5.0 3 53
- 0.343362 0 5 tcp 1040 ------- 1 0.4 5.0 3 53
r 0.347423 4 0 ack 40 ------- 1 4.0 0.3 4 51
+ 0.350764 2 3 tcp 1040 ------- 1 2.2 3.2 4 54
- 0.350764 2 3 tcp 1040 ------- 1 2.2 3.2 4 54
+ 0.351992 0 2 tcp 1040 ------- 1 0.1 2.0 2 55
- 0.351992 0 2 tcp 1040 ------- 1 0.1 2.0 2 55
r 0.352204 0 1 tcp 40 ------- 1 0.0 1.0 0 52
+ 0.352204 1 0 ack 40 ------- 1 1.0 0.0 0 56
- 0.352204 1 0 ack 40 ------- 1 1.0 0.0 0 56
+ 0.353167 0 4 tcp 1040 ------- 1 0.3 4.0 5 57
- 0.353167 0 4 tcp 1040 ------- 1 0.3 4.0 5 57
r 0.353403 0 5 tcp 1040 ------- 1 0.4 5.0 3 53
+ 0.353403 5 0 ack 40 ------- 1 5.0 0.4 3 58
- 0.353403 5 0 ack 40 ------- 1 5.0 0.4 3 58
+ 0.354421 0 2 tcp 1040 ------- 1 0.1 2.0 3 59
- 0.354421 0 2 tcp 1040 ------- 1 0.1 2.0 3 59
r 0.360805 2 3 tcp 1040 ------- 1 2.2 3.2 4 54
+ 0.360805 3 2 ack 40 ------- 1 3.2 2.2 4 60
- 0.360805 3 2 ack 40 ------- 1 3.2 2.2 4 60
r 0.362034 0 2 tcp 1040 ------- 1 0.1 2.0 2 55
+ 0.362034 2 0 ack 40 ------- 1 2.0 0.1 2 61
- 0.362034 2 0 ack 40 ------- 1 2.0 0.1 2 61
r 0.362205 1 0 ack 40 ------- 1 1.0 0.0 0 56
+ 0.362205 0 1 tcp 1040 ------- 1 0.0 1.0 1 62
- 0.362205 0 1 tcp 1040 ------- 1 0.0 1.0 1 62
r 0.363209 0 4 tcp 1040 ------- 1 0.3 4.0 5 57
+ 0.363209 4 0 ack 40 ------- 1 4.0 0.3 5 63
- 0.363209 4 0 ack 40 ------- 1 4.0 0.3 5 63
r 0.363405 5 0 ack 40 ------- 1 5.0 0.4 3 58
r 0.364462 0 2 tcp 1040 ------- 1 0.1 2.0 3 59
+ 0.364462 2 0 ack 40 ------- 1 2.0 0.1 3 64
- 0.364462 2 0 ack 40 ------- 1 2.0 0.1 3 64
+ 0.36747 1 5 tcp 40 ------- 1 1.4 5.1 0 65
- 0.36747 1 5 tcp 40 ------- 1 1.4 5.1 0 65
r 0.370807 3 2 ack 40 ------- 1 3.2 2.2 4 60
r 0.372035 2 0 ack 40 ------- 1 2.0 0.1 2 61
r 0.372247 0 1 tcp 1040 ------- 1 0.0 1.0 1 62
+ 0.372247 1 0 ack 40 ------- 1 1.0 0.0 1 66
- 0.372247 1 0 ack 40 ------- 1 1.0 0.0 1 66
r 0.37321 4 0 ack 40 ------- 1 4.0 0.3 5 63
r 0.374464 2 0 ack 40 ------- 1 2.0 0.1 3 64
r 0.377471 1 5 tcp 40 ------- 1 1.4 5.1 0 65
+ 0.377471 5 1 ack 40 ------- 1 5.1 1.4 0 67
- 0.377471 5 1 ack 40 ------- 1 5.1 1.4 0 67
+ 0.379755 0 5 tcp 1040 ------- 1 0.4 5.0 4 68
- 0.379755 0 5 tcp 1040 ------- 1 0.4 5.0 4 68
r 0.382249 1 0 ack 40 ------- 1 1.0 0.0 1 66
r 0.387473 5 1 ack 40 ------- 1 5.1 1.4 0 67
+ 0.387473 1 5 tcp 1040 ------- 1 1.4 5.1 1 69
- 0.387473 1 5 tcp 1040 ------- 1 1.4 5.1 1 69
r 0.389797 0 5 tcp 1040 ------- 1 0.4 5.0 4 68
+ 0.389797 5 0 ack 40 ------- 1 5.0 0.4 4 70
- 0.389797 5 0 ack 40 ------- 1 5.0 0.4 4 70
+ 0.391446 2 4 tcp 1040 ------- 1 2.3 4.2 3 71
- 0.391446 2 4 tcp 1040 ------- 1 2.3 4.2 3 71
+ 0.394245 0 5 tcp 1040 ------- 1 0.4 5.0 5 72
- 0.394245 0 5 tcp 1040 ------- 1 0.4 5.0 5 72
r 0.397514 1 5 tcp 1040 ------- 1 1.4 5.1 1 69
+ 0.397514 5 1 ack 40 ------- 1 5.1 1.4 1 73
- 0.397514 5 1 ack 40 ------- 1 5.1 1.4 1 73
r 0.399798 5 0 ack 40 ------- 1 5.0 0.4 4 70
r 0.401488 2 4 tcp 1040 ------- 1 2.3 4.2 3 71
+ 0.401488 4 2 ack 40 ------- 1 4.2 2.3 3 74
- 0.401488 4 2 ack 40 ------- 1 4.2 2.3 3 74
+ 0.402265 1 4 tcp 1040 ------- 1 1.3 4.1 2 75
- 0.402265 1 4 tcp 1040 ------- 1 1.3 4.1 2 75
r 0.404287 0 5 tcp 1040 ------- 1 0.4 5.0 5 72
+ 0.404287 5 0 ack 40 ------- 1 5.0 0.4 5 76
- 0.404287 5 0 ack 40 ------- 1 5.0 0.4 5 76
r 0.407516 5 1 ack 40 ------- 1 5.1 1.4 1 73
r 0.411489 4 2 ack 40 ------- 1 4.2 2.3 3 74
r 0.412307 1 4 tcp 1040 ------- 1 1.3 4.1 2 75
+ 0.412307 4 1 ack 40 ------- 1 4.1 1.3 2 77
- 0.412307 4 1 ack 40 ------- 1 4.1 1.3 2 77
r 0.414289 5 0 ack 40 ------- 1 5.0 0.4 5 76
+ 0.418898 3 4 tcp 40 ------- 1 3.3 4.3 0 78
- 0.418898 3 4 tcp 40 ------- 1 3.3 4.3 0 78
+ 0.420975 2 5 tcp 1040 ------- 1 2.4 5.2 2 79
- 0.420975 2 5 tcp 1040 ------- 1 2.4 5.2 2 79
+ 0.421459 1 3 tcp 40 ------- 1 1.2 3.1 0 80
- 0.421459 1 3 tcp 40 ------- 1 1.2 3.1 0 80
r 0.422309 4 1 ack 40 ------- 1 4.1 1.3 2 77
+ 0.425022 0 5 tcp 1040 ------- 1 0.4 5.0 6 81
- 0.425022 0 5 tcp 1040 ------- 1 0.4 5.0 6 81
+ 0.425405 0 2 tcp 1040 ------- 1 0.1 2.0 4 82
- 0.425405 0 2 tcp 1040 ------- 1 0.1 2.0 4 82
r 0.428899 3 4 tcp 40 ------- 1 3.3 4.3 0 78
+ 0.428899 4 3 ack 40 ------- 1 4.3 3.3 0 83
- 0.428899 4 3 ack 40 ------- 1 4.3 3.3 0 83
r 0.431017 2 5 tcp 1040 ------- 1 2.4 5.2 2 79
+ 0.431017 5 2 ack 40 ------- 1 5.2 2.4 2 84
- 0.431017 5 2 ack 40 ------- 1 5.2 2.4 2 84
r 0.43146 1 3 tcp 40 ------- 1 1.2 3.1 0 80
+ 0.43146 3 1 ack 40 ------- 1 3.1 1.2 0 85
- 0.43146 3 1 ack 40 ------- 1 3.1 1.2 0 85
r 0.435063 0 5 tcp 1040 ------- 1 0.4 5.0 6 81
+ 0.435063 5 0 ack 40 ------- 1 5.0 0.4 6 86
- 0.435063 5 0 ack 40 ------- 1 5.0 0.4 6 86
r 0.435447 0 2 tcp 1040 ------- 1 0.1 2.0 4 82
+ 0.435447 2 0 ack 40 ------- 1 2.0 0.1 4 87
- 0.435447 2 0 ack 40 ------- 1 2.0 0.1 4 87
+ 0.438799 0 2 tcp 1040 ------- 1 0.1 2.0 5 88
- 0.438799 0 2 tcp 1040 ------- 1 0.1 2.0 5 88
r 0.438901 4 3 ack 40 ------- 1 4.3 3.3 0 83
+ 0.438901 3 4 tcp 1040 ------- 1 3.3 4.3 1 89
- 0.438901 3 4 tcp 1040 ------- 1 3.3 4.3 1 89
r 0.441018 5 2 ack 40 ------- 1 5.2 2.4 2 84
r 0.441462 3 1 ack 40 ------- 1 3.1 1.2 0 85
+ 0.441462 1 3 tcp 1040 ------- 1 1.2 3.1 1 90
- 0.441462 1 3 tcp 1040 ------- 1 1.2 3.1 1 90
+ 0.441462 1 3 tcp 1040 ------- 1 1.2 3.1 2 91
- 0.441504 1 3 tcp 1040 ------- 1 1.2 3.1 2 91
+ 0.441505 2 5 tcp 1040 ------- 1 2.4 5.2 3 92
- 0.441505 2 5 tcp 1040 ------- 1 2.4 5.2 3 92
r 0.445065 5 0 ack 40 ------- 1 5.0 0.4 6 86
r 0.445448 2 0 ack 40 ------- 1 2.0 0.1 4 87
r 0.44884 0 2 tcp 1040 ------- 1 0.1 2.0 5 88
+ 0.44884 2 0 ack 40 ------- 1 2.0 0.1 5 93
- 0.44884 2 0 ack 40 ------- 1 2.0 0.1 5 93
r 0.448942 3 4 tcp 1040 ------- 1 3.3 4.3 1 89
+ 0.448942 4 3 ack 40 ------- 1 4.3 3.3 1 94
- 0.448942 4 3 ack 40 ------- 1 4.3 3.3 1 94
r 0.451504 1 3 tcp 1040 ------- 1 1.2 3.1 1 90
+ 0.451504 3 1 ack 40 ------- 1 3.1 1.2 1 95
- 0.451504 3 1 ack 40 ------- 1 3.1 1.2 1 95
r 0.451545 1 3 tcp 1040 ------- 1 1.2 3.1 2 91
+ 0.451545 3 1 ack 40 ------- 1 3.1 1.2 2 96
- 0.451545 3 1 ack 40 ------- 1 3.1 1.2 2 96
r 0.451547 2 5 tcp 1040 ------- 1 2.4 5.2 3 92
+ 0.451547 5 2 ack 40 ------- 1 5.2 2.4 3 97
- 0.451547 5 2 ack 40 ------- 1 5.2 2.4 3 97
+ 0.454389 2 4 tcp 1040 ------- 1 2.3 4.2 4 98
- 0.454389 2 4 tcp 1040 ------- 1 2.3 4.2 4 98
+ 0.456761 0 5 tcp 1040 ------- 1 0.4 5.0 7 99
- 0.456761 0 5 tcp 1040 ------- 1 0.4 5.0 7 99
r 0.458842 2 0 ack 40 ------- 1 2.0 0.1 5 93
r 0.458944 4 3 ack 40 ------- 1 4.3 3.3 1 94
r 0.461505 3 1 ack 40 ------- 1 3.1 1.2 1 95
r 0.461547 3 1 ack 40 ------- 1 3.1 1.2 2 96
r 0.461549 5 2 ack 40 ------- 1 5.2 2.4 3 97
+ 0.463569 2 5 tcp 1040 ------- 1 2.4 5.2 4 100
- 0.463569 2 5 tcp 1040 ------- 1 2.4 5.2 4 100
r 0.46443 2 4 tcp 1040 ------- 1 2.3 4.2 4 98
+ 0.46443 4 2 ack 40 ------- 1 4.2 2.3 4 101
- 0.46443 4 2 ack 40 ------- 1 4.2 2.3 4 101
r 0.466803 0 5 tcp 1040 ------- 1 0.4 5.0 7 99
+ 0.466803 5 0 ack 40 ------- 1 5.0 0.4 7 102
- 0.466803 5 0 ack 40 ------- 1 5.0 0.4 7 102
+ 0.467772 0 3 tcp 1040 ------- 1 0.2 3.0 3 103
- 0.467772 0 3 tcp 1040 ------- 1 0.2 3.0 3 103
+ 0.469473 0 2 tcp 1040 ------- 1 0.1 2.0 6 104
- 0.469473 0 2 tcp 1040 ------- 1 0.1 2.0 6 104
r 0.47361 2 5 tcp 1040 ------- 1 2.4 5.2 4 100
+ 0.47361 5 2 ack 40 ------- 1 5.2 2.4 4 105
- 0.47361 5 2 ack 40 ------- 1 5.2 2.4 4 105
r 0.474432 4 2 ack 40 ------- 1 4.2 2.3 4 101
r 0.476804 5 0 ack 40 ------- 1 5.0 0.4 7 102
r 0.477814 0 3 tcp 1040 ------- 1 0.2 3.0 3 103
+ 0.477814 3 0 ack 40 ------- 1 3.0 0.2 3 106
- 0.477814 3 0 ack 40 ------- 1 3.0 0.2 3 106
r 0.479514 0 2 tcp 1040 ------- 1 0.1 2.0 6 104
+ 0.479514 2 0 ack 40 ------- 1 2.0 0.1 6 107
- 0.479514 2 0 ack 40 ------- 1 2.0 0.1 6 107
r 0.483612 5 2 ack 40 ------- 1 5.2 2.4 4 105
+ 0.483954 2 5 tcp 1040 ------- 1 2.4 5.2 5 108
- 0.483954 2 5 tcp 1040 ------- 1 2.4 5.2 5 108
+ 0.484039 3 5 tcp 40 ------- 1 3.4 5.3 0 109
- 0.484039 3 5 tcp 40 ------- 1 3.4 5.3 0 109
+ 0.485103 1 3 tcp 1040 ------- 1 1.2 3.1 3 110
- 0.485103 1 3 tcp 1040 ------- 1 1.2 3.1 3 110
r 0.487815 3 0 ack 40 ------- 1 3.0 0.2 3 106
+ 0.488725 1 4 tcp 1040 ------- 1 1.3 4.1 3 111
- 0.488725 1 4 tcp 1040 ------- 1 1.3 4.1 3 111
r 0.489516 2 0 ack 40 ------- 1 2.0 0.1 6 107
+ 0.492136 0 3 tcp 1040 ------- 1 0.2 3.0 4 112
- 0.492136 0 3 tcp 1040 ------- 1 0.2 3.0 4 112
r 0.493995 2 5 tcp 1040 ------- 1 2.4 5.2 5 108
+ 0.493995 5 2 ack 40 ------- 1 5.2 2.4 5 113
- 0.493995 5 2 ack 40 ------- 1 5.2 2.4 5 113
r 0.494041 3 5 tcp 40 ------- 1 3.4 5.3 0 109
+ 0.494041 5 3 ack 40 ------- 1 5.3 3.4 0 114
- 0.494041 5 3 ack 40 ------- 1 5.3 3.4 0 114
r 0.495145 1 3 tcp 1040 ------- 1 1.2 3.1 3 110
+ 0.495145 3 1 ack 40 ------- 1 3.1 1.2 3 115
- 0.495145 3 1 ack 40 ------- 1 3.1 1.2 3 115
r 0.498767 1 4 tcp 1040 ------- 1 1.3 4.1 3 111
+ 0.498767 4 1 ack 40 ------- 1 4.1 1.3 3 116
- 0.498767 4 1 ack 40 ------- 1 4.1 1.3 3 116
+ 0.499834 0 1 tcp 1040 ------- 1 0.0 1.0 2 117
- 0.499834 0 1 tcp 1040 ------- 1 0.0 1.0 2 117
r 0.502177 0 3 tcp 1040 ------- 1 0.2 3.0 4 112
+ 0.502177 3 0 ack 40 ------- 1 3.0 0.2 4 118
- 0.502177 3 0 ack 40 ------- 1 3.0 0.2 4 118
r 0.503997 5 2 ack 40 ------- 1 5.2 2.4 5 113
r 0.504043 5 3 ack 40 ------- 1 5.3 3.4 0 114
+ 0.504043 3 5 tcp 1040 ------- 1 3.4 5.3 1 119
- 0.504043 3 5 tcp 1040 ------- 1 3.4 5.3 1 119
r 0.505147 3 1 ack 40 ------- 1 3.1 1.2 3 115
r 0.508768 4 1 ack 40 ------- 1 4.1 1.3 3 116
r 0.509876 0 1 tcp 1040 ------- 1 0.0 1.0 2 117
+ 0.509876 1 0 ack 40 ------- 1 1.0 0.0 2 120
- 0.509876 1 0 ack 40 ------- 1 1.0 0.0 2 120
+ 0.510491 0 2 tcp 1040 ------- 1 0.1 2.0 7 121
- 0.510491 0 2 tcp 1040 ------- 1 0.1 2.0 7 121
r 0.512179 3 0 ack 40 ------- 1 3.0 0.2 4 118
r 0.514084 3 5 tcp 1040 ------- 1 3.4 5.3 1 119
+ 0.514084 5 3 ack 40 ------- 1 5.3 3.4 1 122
- 0.514084 5 3 ack 40 ------- 1 5.3 3.4 1 122
+ 0.515028 0 5 tcp 1040 ------- 1 0.4 5.0 8 123
- 0.515028 0 5 tcp 1040 ------- 1 0.4 5.0 8 123
r 0.519878 1 0 ack 40 ------- 1 1.0 0.0 2 120
r 0.520533 0 2 tcp 1040 ------- 1 0.1 2.0 7 121
+ 0.520533 2 0 ack 40 ------- 1 2.0 0.1 7 124
- 0.520533 2 0 ack 40 ------- 1 2.0 0.1 7 124
+ 0.522953 2 3 tcp 1040 ------- 1 2.2 3.2 5 125
- 0.522953 2 3 tcp 1040 ------- 1 2.2 3.2 5 125
r 0.524086 5 3 ack 40 ------- 1 5.3 3.4 1 122
r 0.525069 0 5 tcp 1040 ------- 1 0.4 5.0 8 123
+ 0.525069 5 0 ack 40 ------- 1 5.0 0.4 8 126
- 0.525069 5 0 ack 40 ------- 1 5.0 0.4 8 126
r 0.530535 2 0 ack 40 ------- 1 2.0 0.1 7 124
+ 0.532171 2 3 tcp 1040 ------- 1 2.2 3.2 6 127
- 0.532171 2 3 tcp 1040 ------- 1 2.2 3.2 6 127
r 0.532994 2 3 tcp 1040 ------- 1 2.2 3.2 5 125
+ 0.532994 3 2 ack 40 ------- 1 3.2 2.2 5 128
- 0.532994 3 2 ack 40 ------- 1 3.2 2.2 5 128
r 0.535071 5 0 ack 40 ------- 1 5.0 0.4 8 126
r 0.542212 2 3 tcp 1040 ------- 1 2.2 3.2 6 127
+ 0.542212 3 2 ack 40 ------- 1 3.2 2.2 6 129
- 0.542212 3 2 ack 40 ------- 1 3.2 2.2 6 129
r 0.542996 3 2 ack 40 ------- 1 3.2 2.2 5 128
+ 0.545594 1 3 tcp 1040 ------- 1 1.2 3.1 4 130
- 0.545594 1 3 tcp 1040 ------- 1 1.2 3.1 4 130
+ 0.551313 0 5 tcp 1040 ------- 1 0.4 5.0 9 131
- 0.551313 0 5 tcp 1040 ------- 1 0.4 5.0 9 131
r 0.552214 3 2 ack 40 ------- 1 3.2 2.2 6 129
r 0.555636 1 3 tcp 1040 ------- 1 1.2 3.1 4 130
+ 0.555636 3 1 ack 40 ------- 1 3.1 1.2 4 132
- 0.555636 3 1 ack 40 ------- 1 3.1 1.2 4 132
+ 0.557655 2 4 tcp 1040 ------- 1 2.3 4.2 5 133
- 0.557655 2 4 tcp 1040 ------- 1 2.3 4.2 5 133
r 0.561354 0 5 tcp 1040 ------- 1 0.4 5.0 9 131
+ 0.561354 5 0 ack 40 ------- 1 5.0 0.4 9 134
- 0.561354 5 0 ack 40 ------- 1 5.0 0.4 9 134
r 0.565638 3 1 ack 40 ------- 1 3.1 1.2 4 132
r 0.567696 2 4 tcp 1040 ------- 1 2.3 4.2 5 133
+ 0.567696 4 2 ack 40 ------- 1 4.2 2.3 5 135
- 0.567696 4 2 ack 40 ------- 1 4.2 2.3 5 135
r 0.571356 5 0 ack 40 ------- 1 5.0 0.4 9 134
+ 0.574087 3 5 tcp 1040 ------- 1 3.4 5.3 2 136
- 0.574087 3 5 tcp 1040 ------- 1 3.4 5.3 2 136
r 0.577698 4 2 ack 40 ------- 1 4.2 2.3 5 135
r 0.584128 3 5 tcp 1040 ------- 1 3.4 5.3 2 136
+ 0.584128 5 3 ack 40 ------- 1 5.3 3.4 2 137
- 0.584128 5 3 ack 40 ------- 1 5.3 3.4 2 137
+ 0.587181 1 4 tcp 1040 ------- 1 1.3 4.1 4 138
- 0.587181 1 4 tcp 1040 ------- 1 1.3 4.1 4 138
+ 0.592465 0 4 tcp 1040 ---A--- 1 0.3 4.0 6 139
- 0.592465 0 4 tcp 1040 ---A--- 1 0.3 4.0 6 139
r 0.59413 5 3 ack 40 ------- 1 5.3 3.4 2 137
r 0.597223 1 4 tcp 1040 ------- 1 1.3 4.1 4 138
+ 0.597223 4 1 ack 40 ------- 1 4.1 1.3 4 140
- 0.597223 4 1 ack 40 ------- 1 4.1 1.3 4 140
+ 0.599822 1 4 tcp 1040 ------- 1 1.3 4.1 5 141
- 0.599822 1 4 tcp 1040 ------- 1 1.3 4.1 5 141
r 0.602507 0 4 tcp 1040 ---A--- 1 0.3 4.0 6 139
+ 0.602507 4 0 ack 40 ------- 1 4.0 0.3 6 142
- 0.602507 4 0 ack 40 ------- 1 4.0 0.3 6 142
r 0.607224 4 1 ack 40 ------- 1 4.1 1.3 4 140
r 0.609863 1 4 tcp 1040 ------- 1 1.3 4.1 5 141
+ 0.609863 4 1 ack 40 ------- 1 4.1 1.3 5 143
- 0.609863 4 1 ack 40 ------- 1 4.1 1.3 5 143
r 0.612509 4 0 ack 40 ------- 1 4.0 0.3 6 142
+ 0.612509 0 4 tcp 1040 ------- 1 0.3 4.0 7 144
- 0.612509 0 4 tcp 1040 ------- 1 0.3 4.0 7 144
r 0.619865 4 1 ack 40 ------- 1 4.1 1.3 5 143
+ 0.620689 0 2 tcp 1040 ------- 1 0.1 2.0 8 145
- 0.620689 0 2 tcp 1040 ------- 1 0.1 2.0 8 145
+ 0.62141 1 4 tcp 1040 ------- 1 1.3 4.1 6 146
- 0.62141 1 4 tcp 1040 ------- 1 1.3 4.1 6 146
r 0.62255 0 4 tcp 1040 ------- 1 0.3 4.0 7 144
+ 0.62255 4 0 ack 40 ------- 1 4.0 0.3 7 147
- 0.62255 4 0 ack 40 ------- 1 4.0 0.3 7 147
r 0.630731 0 2 tcp 1040 ------- 1 0.1 2.0 8 145
+ 0.630731 2 0 ack 40 ------- 1 2.0 0.1 8 148
- 0.630731 2 0 ack 40 ------- 1 2.0 0.1 8 148
r 0.631451 1 4 tcp 1040 ------- 1 1.3 4.1 6 146
+ 0.631451 4 1 ack 40 ------- 1 4.1 1.3 6 149
- 0.631451 4 1 ack 40 ------- 1 4.1 1.3 6 149
r 0.632552 4 0 ack 40 ------- 1 4.0 0.3 7 147
r 0.640732 2 0 ack 40 ------- 1 2.0 0.1 8 148
r 0.641453 4 1 ack 40 ------- 1 4.1 1.3 6 149
+ 0.646312 1 3 tcp 1040 ------- 1 1.2 3.1 5 150
- 0.646312 1 3 tcp 1040 ------- 1 1.2 3.1 5 150
+ 0.649407 1 2 tcp 1040 ---A--- 1 1.1 2.1 2 151
- 0.649407 1 2 tcp 1040 ---A--- 1 1.1 2.1 2 151
+ 0.649482 1 4 tcp 1040 ------- 1 1.3 4.1 7 152
- 0.649482 1 4 tcp 1040 ------- 1 1.3 4.1 7 152
+ 0.652744 4 5 tcp 40 ------- 1 4.4 5.4 0 153
- 0.652744 4 5 tcp 40 ------- 1 4.4 5.4 0 153
r 0.656354 1 3 tcp 1040 ------- 1 1.2 3.1 5 150
+ 0.656354 3 1 ack 40 ------- 1 3.1 1.2 5 154
- 0.656354 3 1 ack 40 ------- 1 3.1 1.2 5 154
r 0.659448 1 2 tcp 1040 ---A--- 1 1.1 2.1 2 151
+ 0.659448 2 1 ack 40 ------- 1 2.1 1.1 2 155
- 0.659448 2 1 ack 40 ------- 1 2.1 1.1 2 155
r 0.659524 1 4 tcp 1040 ------- 1 1.3 4.1 7 152
+ 0.659524 4 1 ack 40 ------- 1 4.1 1.3 7 156
- 0.659524 4 1 ack 40 ------- 1 4.1 1.3 7 156
+ 0.661712 3 4 tcp 1040 ---A--- 1 3.3 4.3 2 157
- 0.661712 3 4 tcp 1040 ---A--- 1 3.3 4.3 2 157
r 0.662745 4 5 tcp 40 ------- 1 4.4 5.4 0 153
+ 0.662745 5 4 ack 40 ------- 1 5.4 4.4 0 158
- 0.662745 5 4 ack 40 ------- 1 5.4 4.4 0 158
r 0.666356 3 1 ack 40 ------- 1 3.1 1.2 5 154
+ 0.666776 1 5 tcp 1040 ---A--- 1 1.4 5.1 2 159
- 0.666776 1 5 tcp 1040 ---A--- 1 1.4 5.1 2 159
r 0.66945 2 1 ack 40 ------- 1 2.1 1.1 2 155
r 0.669526 4 1 ack 40 ------- 1 4.1 1.3 7 156
+ 0.670061 0 5 tcp 1040 ------- 1 0.4 5.0 10 160
- 0.670061 0 5 tcp 1040 ------- 1 0.4 5.0 10 160
r 0.671754 3 4 tcp 1040 ---A--- 1 3.3 4.3 2 157
+ 0.671754 4 3 ack 40 ------- 1 4.3 3.3 2 161
- 0.671754 4 3 ack 40 ------- 1 4.3 3.3 2 161
r 0.672747 5 4 ack 40 ------- 1 5.4 4.4 0 158
+ 0.672747 4 5 tcp 1040 ------- 1 4.4 5.4 1 162
- 0.672747 4 5 tcp 1040 ------- 1 4.4 5.4 1 162
+ 0.673026 1 2 tcp 1040 ------- 1 1.1 2.1 3 163
- 0.673026 1 2 tcp 1040 ------- 1 1.1 2.1 3 163
+ 0.673674 2 5 tcp 1040 ------- 1 2.4 5.2 6 164
- 0.673674 2 5 tcp 1040 ------- 1 2.4 5.2 6 164
r 0.676818 1 5 tcp 1040 ---A--- 1 1.4 5.1 2 159
+ 0.676818 5 1 ack 40 ------- 1 5.1 1.4 2 165
- 0.676818 5 1 ack 40 ------- 1 5.1 1.4 2 165
r 0.680102 0 5 tcp 1040 ------- 1 0.4 5.0 10 160
+ 0.680102 5 0 ack 40 ------- 1 5.0 0.4 10 166
- 0.680102 5 0 ack 40 ------- 1 5.0 0.4 10 166
r 0.681756 4 3 ack 40 ------- 1 4.3 3.3 2 161
r 0.682789 4 5 tcp 1040 ------- 1 4.4 5.4 1 162
+ 0.682789 5 4 ack 40 ------- 1 5.4 4.4 1 167
- 0.682789 5 4 ack 40 ------- 1 5.4 4.4 1 167
r 0.683068 1 2 tcp 1040 ------- 1 1.1 2.1 3 163
+ 0.683068 2 1 ack 40 ------- 1 2.1 1.1 3 168
- 0.683068 2 1 ack 40 ------- 1 2.1 1.1 3 168
r 0.683715 2 5 tcp 1040 ------- 1 2.4 5.2 6 164
+ 0.683715 5 2 ack 40 ------- 1 5.2 2.4 6 169
- 0.683715 5 2 ack 40 ------- 1 5.2 2.4 6 169
r 0.68682 5 1 ack 40 ------- 1 5.1 1.4 2 165
+ 0.687489 3 5 tcp 1040 ------- 1 3.4 5.3 3 170
- 0.687489 3 5 tcp 1040 ------- 1 3.4 5.3 3 170
r 0.690104 5 0 ack 40 ------- 1 5.0 0.4 10 166
r 0.69279 5 4 ack 40 ------- 1 5.4 4.4 1 167
r 0.693069 2 1 ack 40 ------- 1 2.1 1.1 3 168
r 0.693717 5 2 ack 40 ------- 1 5.2 2.4 6 169
+ 0.694868 1 3 tcp 1040 ------- 1 1.2 3.1 6 171
- 0.694868 1 3 tcp 1040 ------- 1 1.2 3.1 6 171
r 0.697531 3 5 tcp 1040 ------- 1 3.4 5.3 3 170
+ 0.697531 5 3 ack 40 ------- 1 5.3 3.4 3 172
- 0.697531 5 3 ack 40 ------- 1 5.3 3.4 3 172
r 0.704909 1 3 tcp 1040 ------- 1 1.2 3.1 6 171
+ 0.704909 3 1 ack 40 ------- 1 3.1 1.2 6 173
- 0.704909 3 1 ack 40 ------- 1 3.1 1.2 6 173
+ 0.705469 1 3 tcp 1040 ------- 1 1.2 3.1 7 174
- 0.705469 1 3 tcp 1040 ------- 1 1.2 3.1 7 174
r 0.707533 5 3 ack 40 ------- 1 5.3 3.4 3 172
+ 0.714731 1 4 tcp 1040 ------- 1 1.3 4.1 8 175
- 0.714731 1 4 tcp 1040 ------- 1 1.3 4.1 8 175
r 0.714911 3 1 ack 40 ------- 1 3.1 1.2 6 173
r 0.715511 1 3 tcp 1040 ------- 1 1.2 3.1 7 174
+ 0.715511 3 1 ack 40 ------- 1 3.1 1.2 7 176
- 0.715511 3 1 ack 40 ------- 1 3.1 1.2 7 176
r 0.724773 1 4 tcp 1040 ------- 1 1.3 4.1 8 175
+ 0.724773 4 1 ack 40 ------- 1 4.1 1.3 8 177
- 0.724773 4 1 ack 40 ------- 1 4.1 1.3 8 177
r 0.725512 3 1 ack 40 ------- 1 3.1 1.2 7 176
+ 0.732315 4 5 tcp 1040 ------- 1 4.4 5.4 2 178
- 0.732315 4 5 tcp 1040 ------- 1 4.4 5.4 2 178
r 0.734775 4 1 ack 40 ------- 1 4.1 1.3 8 177
r 0.742356 4 5 tcp 1040 ------- 1 4.4 5.4 2 178
+ 0.742356 5 4 ack 40 ------- 1 5.4 4.4 2 179
- 0.742356 5 4 ack 40 ------- 1 5.4 4.4 2 179
+ 0.748209 0 1 tcp 1040 ---A--- 1 0.0 1.0 3 180
- 0.748209 0 1 tcp 1040 ---A--- 1 0.0 1.0 3 180
+ 0.752178 0 5 tcp 1040 ------- 1 0.4 5.0 11 181
- 0.752178 0 5 tcp 1040 ------- 1 0.4 5.0 11 181
r 0.752358 5 4 ack 40 ------- 1 5.4 4.4 2 179
+ 0.755758 1 2 tcp 1040 ------- 1 1.1 2.1 4 182
- 0.755758 1 2 tcp 1040 ------- 1 1.1 2.1 4 182
r 0.758251 0 1 tcp 1040 ---A--- 1 0.0 1.0 3 180
+ 0.758251 1 0 ack 40 ------- 1 1.0 0.0 3 183
- 0.758251 1 0 ack 40 ------- 1 1.0 0.0 3 183
r 0.76222 0 5 tcp 1040 ------- 1 0.4 5.0 11 181
+ 0.76222 5 0 ack 40 ------- 1 5.0 0.4 11 184
- 0.76222 5 0 ack 40 ------- 1 5.0 0.4 11 184
r 0.765799 1 2 tcp 1040 ------- 1 1.1 2.1 4 182
+ 0.765799 2 1 ack 40 ------- 1 2.1 1.1 4 185
- 0.765799 2 1 ack 40 ------- 1 2.1 1.1 4 185
r 0.768253 1 0 ack 40 ------- 1 1.0 0.0 3 183
r 0.772221 5 0 ack 40 ------- 1 5.0 0.4 11 184
r 0.775801 2 1 ack 40 ------- 1 2.1 1.1 4 185
+ 0.78173 0 4 tcp 1040 ------- 1 0.3 4.0 8 186
- 0.78173 0 4 tcp 1040 ------- 1 0.3 4.0 8 186
+ 0.782878 0 5 tcp 1040 ------- 1 0.4 5.0 12 187
- 0.782878 0 5 tcp 1040 ------- 1 0.4 5.0 12 187
+ 0.784173 2 5 tcp 1040 ------- 1 2.4 5.2 7 188
- 0.784173 2 5 tcp 1040 ------- 1 2.4 5.2 7 188
r 0.791772 0 4 tcp 1040 ------- 1 0.3 4.0 8 186
+ 0.791772 4 0 ack 40 ------- 1 4.0 0.3 8 189
- 0.791772 4 0 ack 40 ------- 1 4.0 0.3 8 189
+ 0.792623 0 4 tcp 1040 ------- 1 0.3 4.0 9 190
- 0.792623 0 4 tcp 1040 ------- 1 0.3 4.0 9 190
r 0.792919 0 5 tcp 1040 ------- 1 0.4 5.0 12 187
+ 0.792919 5 0 ack 40 ------- 1 5.0 0.4 12 191
- 0.792919 5 0 ack 40 ------- 1 5.0 0.4 12 191
r 0.794215 2 5 tcp 1040 ------- 1 2.4 5.2 7 188
+ 0.794215 5 2 ack 40 ------- 1 5.2 2.4 7 192
- 0.794215 5 2 ack 40 ------- 1 5.2 2.4 7 192
+ 0.799034 1 4 tcp 1040 ------- 1 1.3 4.1 9 193
- 0.799034 1 4 tcp 1040 ------- 1 1.3 4.1 9 193
+ 0.800333 2 5 tcp 1040 ------- 1 2.4 5.2 8 194
- 0.800333 2 5 tcp 1040 ------- 1 2.4 5.2 8 194
r 0.801774 4 0 ack 40 ------- 1 4.0 0.3 8 189
r 0.802664 0 4 tcp 1040 ------- 1 0.3 4.0 9 190
+ 0.802664 4 0 ack 40 ------- 1 4.0 0.3 9 195
- 0.802664 4 0 ack 40 ------- 1 4.0 0.3 9 195
r 0.802921 5 0 ack 40 ------- 1 5.0 0.4 12 191
r 0.804216 5 2 ack 40 ------- 1 5.2 2.4 7 192
r 0.809076 1 4 tcp 1040 ------- 1 1.3 4.1 9 193
+ 0.809076 4 1 ack 40 ------- 1 4.1 1.3 9 196
- 0.809076 4 1 ack 40 ------- 1 4.1 1.3 9 196
r 0.810375 2 5 tcp 1040 ------- 1 2.4 5.2 8 194
+ 0.810375 5 2 ack 40 ------- 1 5.2 2.4 8 197
- 0.810375 5 2 ack 40 ------- 1 5.2 2.4 8 197
r 0.812666 4 0 ack 40 ------- 1 4.0 0.3 9 195
+ 0.818369 4 5 tcp 1040 ------- 1 4.4 5.4 3 198
- 0.818369 4 5 tcp 1040 ------- 1 4.4 5.4 3 198
+ 0.818919 3 4 tcp 1040 ------- 1 3.3 4.3 3 199
- 0.818919 3 4 tcp 1040 ------- 1 3.3 4.3 3 199
r 0.819078 4 1 ack 40 ------- 1 4.1 1.3 9 196
r 0.820376 5 2 ack 40 ------- 1 5.2 2.4 8 197
+ 0.828165 1 2 tcp 1040 ------- 1 1.1 2.1 5 200
- 0.828165 1 2 tcp 1040 ------- 1 1.1 2.1 5 200
r 0.82841 4 5 tcp 1040 ------- 1 4.4 5.4 3 198
+ 0.82841 5 4 ack 40 ------- 1 5.4 4.4 3 201
- 0.82841 5 4 ack 40 ------- 1 5.4 4.4 3 201
r 0.828961 3 4 tcp 1040 ------- 1 3.3 4.3 3 199
+ 0.828961 4 3 ack 40 ------- 1 4.3 3.3 3 202
- 0.828961 4 3 ack 40 ------- 1 4.3 3.3 3 202
+ 0.830216 0 5 tcp 1040 ------- 1 0.4 5.0 13 203
- 0.830216 0 5 tcp 1040 ------- 1 0.4 5.0 13 203
+ 0.832691 3 4 tcp 1040 ------- 1 3.3 4.3 4 204
- 0.832691 3 4 tcp 1040 ------- 1 3.3 4.3 4 204
+ 0.837986 0 1 tcp 1040 ------- 1 0.0 1.0 4 205
- 0.837986 0 1 tcp 1040 ------- 1 0.0 1.0 4 205
r 0.838206 1 2 tcp 1040 ------- 1 1.1 2.1 5 200
+ 0.838206 2 1 ack 40 ------- 1 2.1 1.1 5 206
- 0.838206 2 1 ack 40 ------- 1 2.1 1.1 5 206
r 0.838412 5 4 ack 40 ------- 1 5.4 4.4 3 201
r 0.838962 4 3 ack 40 ------- 1 4.3 3.3 3 202
r 0.840258 0 5 tcp 1040 ------- 1 0.4 5.0 13 203
+ 0.840258 5 0 ack 40 ------- 1 5.0 0.4 13 207
- 0.840258 5 0 ack 40 ------- 1 5.0 0.4 13 207
r 0.842733 3 4 tcp 1040 ------- 1 3.3 4.3 4 204
+ 0.842733 4 3 ack 40 ------- 1 4.3 3.3 4 208
- 0.842733 4 3 ack 40 ------- 1 4.3 3.3 4 208
r 0.848028 0 1 tcp 1040 ------- 1 0.0 1.0 4 205
+ 0.848028 1 0 ack 40 ------- 1 1.0 0.0 4 209
- 0.848028 1 0 ack 40 ------- 1 1.0 0.0 4 209
r 0.848208 2 1 ack 40 ------- 1 2.1 1.1 5 206
r 0.85026 5 0 ack 40 ------- 1 5.0 0.4 13 207
r 0.852734 4 3 ack 40 ------- 1 4.3 3.3 4 208
r 0.858029 1 0 ack 40 ------- 1 1.0 0.0 4 209
+ 0.859576 1 3 tcp 1040 ------- 1 1.2 3.1 8 210
- 0.859576 1 3 tcp 1040 ------- 1 1.2 3.1 8 210
+ 0.867476 3 4 tcp 1040 ------- 1 3.3 4.3 5 211
- 0.867476 3 4 tcp 1040 ------- 1 3.3 4.3 5 211
r 0.869617 1 3 tcp 1040 ------- 1 1.2 3.1 8 210
+ 0.869617 3 1 ack 40 ------- 1 3.1 1.2 8 212
- 0.869617 3 1 ack 40 ------- 1 3.1 1.2 8 212
+ 0.873927 2 3 tcp 1040 ---A--- 1 2.2 3.2 7 213
- 0.873927 2 3 tcp 1040 ---A--- 1 2.2 3.2 7 213
r 0.877517 3 4 tcp 1040 ------- 1 3.3 4.3 5 211
+ 0.877517 4 3 ack 40 ------- 1 4.3 3.3 5 214
- 0.877517 4 3 ack 40 ------- 1 4.3 3.3 5 214
+ 0.87818 1 3 tcp 1040 ------- 1 1.2 3.1 9 215
- 0.87818 1 3 tcp 1040 ------- 1 1.2 3.1 9 215
r 0.879619 3 1 ack 40 ------- 1 3.1 1.2 8 212
r 0.883968 2 3 tcp 1040 ---A--- 1 2.2 3.2 7 213
+ 0.883968 3 2 ack 40 ------- 1 3.2 2.2 7 216