+ 0.2 0 1 tcp 40 ------- 1 0.0 1.0 0 0
- 0.2 0 1 tcp 40 ------- 1 0.0 1.0 0 0
+ 0.2 0 2 tcp 40 ------- 1 0.1 2.0 0 1
- 0.2 0 2 tcp 40 ------- 1 0.1 2.0 0 1
+ 0.2 0 3 tcp 40 ------- 1 0.2 3.0 0 2
- 0.2 0 3 tcp 40 ------- 1 0.2 3.0 0 2
+ 0.2 0 4 tcp 40 ------- 1 0.3 4.0 0 3
- 0.2 0 4 tcp 40 ------- 1 0.3 4.0 0 3
+ 0.2 0 5 tcp 40 ------- 1 0.4 5.0 0 4
- 0.2 0 5 tcp 40 ------- 1 0.4 5.0 0 4
+ 0.2 1 2 tcp 40 ------- 1 1.1 2.1 0 5
- 0.2 1 2 tcp 40 ------- 1 1.1 2.1 0 5
+ 0.2 1 3 tcp 40 ------- 1 1.2 3.1 0 6
- 0.2 1 3 tcp 40 ------- 1 1.2 3.1 0 6
+ 0.2 1 4 tcp 40 ------- 1 1.3 4.1 0 7
- 0.2 1 4 tcp 40 ------- 1 1.3 4.1 0 7
+ 0.2 1 5 tcp 40 ------- 1 1.4 5.1 0 8
- 0.2 1 5 tcp 40 ------- 1 1.4 5.1 0 8
+ 0.2 2 3 tcp 40 ------- 1 2.2 3.2 0 9
- 0.2 2 3 tcp 40 ------- 1 2.2 3.2 0 9
+ 0.2 2 4 tcp 40 ------- 1 2.3 4.2 0 10
- 0.2 2 4 tcp 40 ------- 1 2.3 4.2 0 10
+ 0.2 2 5 tcp 40 ------- 1 2.4 5.2 0 11
- 0.2 2 5 tcp 40 ------- 1 2.4 5.2 0 11
+ 0.2 3 4 tcp 40 ------- 1 3.3 4.3 0 12
- 0.2 3 4 tcp 40 ------- 1 3.3 4.3 0 12
+ 0.2 3 5 tcp 40 ------- 1 3.4 5.3 0 13
- 0.2 3 5 tcp 40 ------- 1 3.4 5.3 0 13
+ 0.2 4 5 tcp 40 ------- 1 4.4 5.4 0 14
- 0.2 4 5 tcp 40 ------- 1 4.4 5.4 0 14
r 0.210003 0 1 tcp 40 ------- 1 0.0 1.0 0 0
+ 0.210003 1 0 ack 40 ------- 1 1.0 0.0 0 15
- 0.210003 1 0 ack 40 ------- 1 1.0 0.0 0 15
r 0.210003 0 2 tcp 40 ------- 1 0.1 2.0 0 1
+ 0.210003 2 0 ack 40 ------- 1 2.0 0.1 0 16
- 0.210003 2 0 ack 40 ------- 1 2.0 0.1 0 16
r 0.210003 0 3 tcp 40 ------- 1 0.2 3.0 0 2
+ 0.210003 3 0 ack 40 ------- 1 3.0 0.2 0 17
- 0.210003 3 0 ack 40 ------- 1 3.0 0.2 0 17
r 0.210003 0 4 tcp 40 ------- 1 0.3 4.0 0 3
+ 0.210003 4 0 ack 40 ------- 1 4.0 0.3 0 18
- 0.210003 4 0 ack 40 ------- 1 4.0 0.3 0 18
r 0.210003 0 5 tcp 40 ------- 1 0.4 5.0 0 4
+ 0.210003 5 0 ack 40 ------- 1 5.0 0.4 0 19
- 0.210003 5 0 ack 40 ------- 1 5.0 0.4 0 19
r 0.210003 1 2 tcp 40 ------- 1 1.1 2.1 0 5
+ 0.210003 2 1 ack 40 ------- 1 2.1 1.1 0 20
- 0.210003 2 1 ack 40 ------- 1 2.1 1.1 0 20
r 0.210003 1 3 tcp 40 ------- 1 1.2 3.1 0 6
+ 0.210003 3 1 ack 40 ------- 1 3.1 1.2 0 21
- 0.210003 3 1 ack 40 ------- 1 3.1 1.2 0 21
r 0.210003 1 4 tcp 40 ------- 1 1.3 4.1 0 7
+ 0.210003 4 1 ack 40 ------- 1 4.1 1.3 0 22
- 0.210003 4 1 ack 40 ------- 1 4.1 1.3 0 22
r 0.210003 1 5 tcp 40 ------- 1 1.4 5.1 0 8
+ 0.210003 5 1 ack 40 ------- 1 5.1 1.4 0 23
- 0.210003 5 1 ack 40 ------- 1 5.1 1.4 0 23
r 0.210003 2 3 tcp 40 ------- 1 2.2 3.2 0 9
+ 0.210003 3 2 ack 40 ------- 1 3.2 2.2 0 24
- 0.210003 3 2 ack 40 ------- 1 3.2 2.2 0 24
r 0.210003 2 4 tcp 40 ------- 1 2.3 4.2 0 10
+ 0.210003 4 2 ack 40 ------- 1 4.2 2.3 0 25
- 0.210003 4 2 ack 40 ------- 1 4.2 2.3 0 25
r 0.210003 2 5 tcp 40 ------- 1 2.4 5.2 0 11
+ 0.210003 5 2 ack 40 ------- 1 5.2 2.4 0 26
- 0.210003 5 2 ack 40 ------- 1 5.2 2.4 0 26
r 0.210003 3 4 tcp 40 ------- 1 3.3 4.3 0 12
+ 0.210003 4 3 ack 40 ------- 1 4.3 3.3 0 27
- 0.210003 4 3 ack 40 ------- 1 4.3 3.3 0 27
r 0.210003 3 5 tcp 40 ------- 1 3.4 5.3 0 13
+ 0.210003 5 3 ack 40 ------- 1 5.3 3.4 0 28
- 0.210003 5 3 ack 40 ------- 1 5.3 3.4 0 28
r 0.210003 4 5 tcp 40 ------- 1 4.4 5.4 0 14
+ 0.210003 5 4 ack 40 ------- 1 5.4 4.4 0 29
- 0.210003 5 4 ack 40 ------- 1 5.4 4.4 0 29
r 0.220006 1 0 ack 40 ------- 1 1.0 0.0 0 15
+ 0.220006 0 1 tcp 1040 ------- 1 0.0 1.0 1 30
- 0.220006 0 1 tcp 1040 ------- 1 0.0 1.0 1 30
+ 0.220006 0 1 tcp 1040 ------- 1 0.0 1.0 2 31
r 0.220006 2 0 ack 40 ------- 1 2.0 0.1 0 16
+ 0.220006 0 2 tcp 1040 ------- 1 0.1 2.0 1 32
- 0.220006 0 2 tcp 1040 ------- 1 0.1 2.0 1 32
+ 0.220006 0 2 tcp 1040 ------- 1 0.1 2.0 2 33
r 0.220006 3 0 ack 40 ------- 1 3.0 0.2 0 17
+ 0.220006 0 3 tcp 1040 ------- 1 0.2 3.0 1 34
- 0.220006 0 3 tcp 1040 ------- 1 0.2 3.0 1 34
+ 0.220006 0 3 tcp 1040 ------- 1 0.2 3.0 2 35
r 0.220006 4 0 ack 40 ------- 1 4.0 0.3 0 18
+ 0.220006 0 4 tcp 1040 ------- 1 0.3 4.0 1 36
- 0.220006 0 4 tcp 1040 ------- 1 0.3 4.0 1 36
+ 0.220006 0 4 tcp 1040 ------- 1 0.3 4.0 2 37
r 0.220006 5 0 ack 40 ------- 1 5.0 0.4 0 19
+ 0.220006 0 5 tcp 1040 ------- 1 0.4 5.0 1 38
- 0.220006 0 5 tcp 1040 ------- 1 0.4 5.0 1 38
+ 0.220006 0 5 tcp 1040 ------- 1 0.4 5.0 2 39
r 0.220006 2 1 ack 40 ------- 1 2.1 1.1 0 20
+ 0.220006 1 2 tcp 1040 ------- 1 1.1 2.1 1 40
- 0.220006 1 2 tcp 1040 ------- 1 1.1 2.1 1 40
+ 0.220006 1 2 tcp 1040 ------- 1 1.1 2.1 2 41
r 0.220006 3 1 ack 40 ------- 1 3.1 1.2 0 21
+ 0.220006 1 3 tcp 1040 ------- 1 1.2 3.1 1 42
- 0.220006 1 3 tcp 1040 ------- 1 1.2 3.1 1 42
+ 0.220006 1 3 tcp 1040 ------- 1 1.2 3.1 2 43
r 0.220006 4 1 ack 40 ------- 1 4.1 1.3 0 22
+ 0.220006 1 4 tcp 1040 ------- 1 1.3 4.1 1 44
- 0.220006 1 4 tcp 1040 ------- 1 1.3 4.1 1 44
+ 0.220006 1 4 tcp 1040 ------- 1 1.3 4.1 2 45
r 0.220006 5 1 ack 40 ------- 1 5.1 1.4 0 23
+ 0.220006 1 5 tcp 1040 ------- 1 1.4 5.1 1 46
- 0.220006 1 5 tcp 1040 ------- 1 1.4 5.1 1 46
+ 0.220006 1 5 tcp 1040 ------- 1 1.4 5.1 2 47
r 0.220006 3 2 ack 40 ------- 1 3.2 2.2 0 24
+ 0.220006 2 3 tcp 1040 ------- 1 2.2 3.2 1 48
- 0.220006 2 3 tcp 1040 ------- 1 2.2 3.2 1 48
+ 0.220006 2 3 tcp 1040 ------- 1 2.2 3.2 2 49
r 0.220006 4 2 ack 40 ------- 1 4.2 2.3 0 25
+ 0.220006 2 4 tcp 1040 ------- 1 2.3 4.2 1 50
- 0.220006 2 4 tcp 1040 ------- 1 2.3 4.2 1 50
+ 0.220006 2 4 tcp 1040 ------- 1 2.3 4.2 2 51
r 0.220006 5 2 ack 40 ------- 1 5.2 2.4 0 26
+ 0.220006 2 5 tcp 1040 ------- 1 2.4 5.2 1 52
- 0.220006 2 5 tcp 1040 ------- 1 2.4 5.2 1 52
+ 0.220006 2 5 tcp 1040 ------- 1 2.4 5.2 2 53
r 0.220006 4 3 ack 40 ------- 1 4.3 3.3 0 27
+ 0.220006 3 4 tcp 1040 ------- 1 3.3 4.3 1 54
- 0.220006 3 4 tcp 1040 ------- 1 3.3 4.3 1 54
+ 0.220006 3 4 tcp 1040 ------- 1 3.3 4.3 2 55
r 0.220006 5 3 ack 40 ------- 1 5.3 3.4 0 28
+ 0.220006 3 5 tcp 1040 ------- 1 3.4 5.3 1 56
- 0.220006 3 5 tcp 1040 ------- 1 3.4 5.3 1 56
+ 0.220006 3 5 tcp 1040 ------- 1 3.4 5.3 2 57
r 0.220006 5 4 ack 40 ------- 1 5.4 4.4 0 29
+ 0.220006 4 5 tcp 1040 ------- 1 4.4 5.4 1 58
- 0.220006 4 5 tcp 1040 ------- 1 4.4 5.4 1 58
+ 0.220006 4 5 tcp 1040 ------- 1 4.4 5.4 2 59
- 0.22009 0 1 tcp 1040 ------- 1 0.0 1.0 2 31
- 0.22009 0 2 tcp 1040 ------- 1 0.1 2.0 2 33
- 0.22009 0 3 tcp 1040 ------- 1 0.2 3.0 2 35
- 0.22009 0 4 tcp 1040 ------- 1 0.3 4.0 2 37
- 0.22009 0 5 tcp 1040 ------- 1 0.4 5.0 2 39
- 0.22009 1 2 tcp 1040 ------- 1 1.1 2.1 2 41
- 0.22009 1 3 tcp 1040 ------- 1 1.2 3.1 2 43
- 0.22009 1 4 tcp 1040 ------- 1 1.3 4.1 2 45
- 0.22009 1 5 tcp 1040 ------- 1 1.4 5.1 2 47
- 0.22009 2 3 tcp 1040 ------- 1 2.2 3.2 2 49
- 0.22009 2 4 tcp 1040 ------- 1 2.3 4.2 2 51
- 0.22009 2 5 tcp 1040 ------- 1 2.4 5.2 2 53
- 0.22009 3 4 tcp 1040 ------- 1 3.3 4.3 2 55
- 0.22009 3 5 tcp 1040 ------- 1 3.4 5.3 2 57
- 0.22009 4 5 tcp 1040 ------- 1 4.4 5.4 2 59
r 0.23009 0 1 tcp 1040 ------- 1 0.0 1.0 1 30
+ 0.23009 1 0 ack 40 ------- 1 1.0 0.0 1 60
- 0.23009 1 0 ack 40 ------- 1 1.0 0.0 1 60
r 0.23009 0 2 tcp 1040 ------- 1 0.1 2.0 1 32
+ 0.23009 2 0 ack 40 ------- 1 2.0 0.1 1 61
- 0.23009 2 0 ack 40 ------- 1 2.0 0.1 1 61
r 0.23009 0 3 tcp 1040 ------- 1 0.2 3.0 1 34
+ 0.23009 3 0 ack 40 ------- 1 3.0 0.2 1 62
- 0.23009 3 0 ack 40 ------- 1 3.0 0.2 1 62
r 0.23009 0 4 tcp 1040 ------- 1 0.3 4.0 1 36
+ 0.23009 4 0 ack 40 ------- 1 4.0 0.3 1 63
- 0.23009 4 0 ack 40 ------- 1 4.0 0.3 1 63
r 0.23009 0 5 tcp 1040 ------- 1 0.4 5.0 1 38
+ 0.23009 5 0 ack 40 ------- 1 5.0 0.4 1 64
- 0.23009 5 0 ack 40 ------- 1 5.0 0.4 1 64
r 0.23009 1 2 tcp 1040 ------- 1 1.1 2.1 1 40
+ 0.23009 2 1 ack 40 ------- 1 2.1 1.1 1 65
- 0.23009 2 1 ack 40 ------- 1 2.1 1.1 1 65
r 0.23009 1 3 tcp 1040 ------- 1 1.2 3.1 1 42
+ 0.23009 3 1 ack 40 ------- 1 3.1 1.2 1 66
- 0.23009 3 1 ack 40 ------- 1 3.1 1.2 1 66
r 0.23009 1 4 tcp 1040 ------- 1 1.3 4.1 1 44
+ 0.23009 4 1 ack 40 ------- 1 4.1 1.3 1 67
- 0.23009 4 1 ack 40 ------- 1 4.1 1.3 1 67
r 0.23009 1 5 tcp 1040 ------- 1 1.4 5.1 1 46
+ 0.23009 5 1 ack 40 ------- 1 5.1 1.4 1 68
- 0.23009 5 1 ack 40 ------- 1 5.1 1.4 1 68
r 0.23009 2 3 tcp 1040 ------- 1 2.2 3.2 1 48
+ 0.23009 3 2 ack 40 ------- 1 3.2 2.2 1 69
- 0.23009 3 2 ack 40 ------- 1 3.2 2.2 1 69
r 0.23009 2 4 tcp 1040 ------- 1 2.3 4.2 1 50
+ 0.23009 4 2 ack 40 ------- 1 4.2 2.3 1 70
- 0.23009 4 2 ack 40 ------- 1 4.2 2.3 1 70
r 0.23009 2 5 tcp 1040 ------- 1 2.4 5.2 1 52
+ 0.23009 5 2 ack 40 ------- 1 5.2 2.4 1 71
- 0.23009 5 2 ack 40 ------- 1 5.2 2.4 1 71
r 0.23009 3 4 tcp 1040 ------- 1 3.3 4.3 1 54
+ 0.23009 4 3 ack 40 ------- 1 4.3 3.3 1 72
- 0.23009 4 3 ack 40 ------- 1 4.3 3.3 1 72
r 0.23009 3 5 tcp 1040 ------- 1 3.4 5.3 1 56
+ 0.23009 5 3 ack 40 ------- 1 5.3 3.4 1 73
- 0.23009 5 3 ack 40 ------- 1 5.3 3.4 1 73
r 0.23009 4 5 tcp 1040 ------- 1 4.4 5.4 1 58
+ 0.23009 5 4 ack 40 ------- 1 5.4 4.4 1 74
- 0.23009 5 4 ack 40 ------- 1 5.4 4.4 1 74
r 0.230173 0 1 tcp 1040 ------- 1 0.0 1.0 2 31
+ 0.230173 1 0 ack 40 ------- 1 1.0 0.0 2 75
- 0.230173 1 0 ack 40 ------- 1 1.0 0.0 2 75
r 0.230173 0 2 tcp 1040 ------- 1 0.1 2.0 2 33
+ 0.230173 2 0 ack 40 ------- 1 2.0 0.1 2 76
- 0.230173 2 0 ack 40 ------- 1 2.0 0.1 2 76
r 0.230173 0 3 tcp 1040 ------- 1 0.2 3.0 2 35
+ 0.230173 3 0 ack 40 ------- 1 3.0 0.2 2 77
- 0.230173 3 0 ack 40 ------- 1 3.0 0.2 2 77
r 0.230173 0 4 tcp 1040 ------- 1 0.3 4.0 2 37
+ 0.230173 4 0 ack 40 ------- 1 4.0 0.3 2 78
- 0.230173 4 0 ack 40 ------- 1 4.0 0.3 2 78
r 0.230173 0 5 tcp 1040 ------- 1 0.4 5.0 2 39
+ 0.230173 5 0 ack 40 ------- 1 5.0 0.4 2 79
- 0.230173 5 0 ack 40 ------- 1 5.0 0.4 2 79
r 0.230173 1 2 tcp 1040 ------- 1 1.1 2.1 2 41
+ 0.230173 2 1 ack 40 ------- 1 2.1 1.1 2 80
- 0.230173 2 1 ack 40 ------- 1 2.1 1.1 2 80
r 0.230173 1 3 tcp 1040 ------- 1 1.2 3.1 2 43
+ 0.230173 3 1 ack 40 ------- 1 3.1 1.2 2 81
- 0.230173 3 1 ack 40 ------- 1 3.1 1.2 2 81
r 0.230173 1 4 tcp 1040 ------- 1 1.3 4.1 2 45
+ 0.230173 4 1 ack 40 ------- 1 4.1 1.3 2 82
- 0.230173 4 1 ack 40 ------- 1 4.1 1.3 2 82
r 0.230173 1 5 tcp 1040 ------- 1 1.4 5.1 2 47
+ 0.230173 5 1 ack 40 ------- 1 5.1 1.4 2 83
- 0.230173 5 1 ack 40 ------- 1 5.1 1.4 2 83
r 0.230173 2 3 tcp 1040 ------- 1 2.2 3.2 2 49
+ 0.230173 3 2 ack 40 ------- 1 3.2 2.2 2 84
- 0.230173 3 2 ack 40 ------- 1 3.2 2.2 2 84
r 0.230173 2 4 tcp 1040 ------- 1 2.3 4.2 2 51
+ 0.230173 4 2 ack 40 ------- 1 4.2 2.3 2 85
- 0.230173 4 2 ack 40 ------- 1 4.2 2.3 2 85
r 0.230173 2 5 tcp 1040 ------- 1 2.4 5.2 2 53
+ 0.230173 5 2 ack 40 ------- 1 5.2 2.4 2 86
- 0.230173 5 2 ack 40 ------- 1 5.2 2.4 2 86
r 0.230173 3 4 tcp 1040 ------- 1 3.3 4.3 2 55
+ 0.230173 4 3 ack 40 ------- 1 4.3 3.3 2 87
- 0.230173 4 3 ack 40 ------- 1 4.3 3.3 2 87
r 0.230173 3 5 tcp 1040 ------- 1 3.4 5.3 2 57
+ 0.230173 5 3 ack 40 ------- 1 5.3 3.4 2 88
- 0.230173 5 3 ack 40 ------- 1 5.3 3.4 2 88
r 0.230173 4 5 tcp 1040 ------- 1 4.4 5.4 2 59
+ 0.230173 5 4 ack 40 ------- 1 5.4 4.4 2 89
- 0.230173 5 4 ack 40 ------- 1 5.4 4.4 2 89
r 0.240093 1 0 ack 40 ------- 1 1.0 0.0 1 60
+ 0.240093 0 1 tcp 1040 ------- 1 0.0 1.0 3 90
- 0.240093 0 1 tcp 1040 ------- 1 0.0 1.0 3 90
+ 0.240093 0 1 tcp 1040 ------- 1 0.0 1.0 4 91
r 0.240093 2 0 ack 40 ------- 1 2.0 0.1 1 61
+ 0.240093 0 2 tcp 1040 ------- 1 0.1 2.0 3 92
- 0.240093 0 2 tcp 1040 ------- 1 0.1 2.0 3 92
+ 0.240093 0 2 tcp 1040 ------- 1 0.1 2.0 4 93
r 0.240093 3 0 ack 40 ------- 1 3.0 0.2 1 62
+ 0.240093 0 3 tcp 1040 ------- 1 0.2 3.0 3 94
- 0.240093 0 3 tcp 1040 ------- 1 0.2 3.0 3 94
+ 0.240093 0 3 tcp 1040 ------- 1 0.2 3.0 4 95
r 0.240093 4 0 ack 40 ------- 1 4.0 0.3 1 63
+ 0.240093 0 4 tcp 1040 ------- 1 0.3 4.0 3 96
- 0.240093 0 4 tcp 1040 ------- 1 0.3 4.0 3 96
+ 0.240093 0 4 tcp 1040 ------- 1 0.3 4.0 4 97
r 0.240093 5 0 ack 40 ------- 1 5.0 0.4 1 64
+ 0.240093 0 5 tcp 1040 ------- 1 0.4 5.0 3 98
- 0.240093 0 5 tcp 1040 ------- 1 0.4 5.0 3 98
+ 0.240093 0 5 tcp 1040 ------- 1 0.4 5.0 4 99
r 0.240093 2 1 ack 40 ------- 1 2.1 1.1 1 65
+ 0.240093 1 2 tcp 1040 ------- 1 1.1 2.1 3 100
- 0.240093 1 2 tcp 1040 ------- 1 1.1 2.1 3 100
+ 0.240093 1 2 tcp 1040 ------- 1 1.1 2.1 4 101
r 0.240093 3 1 ack 40 ------- 1 3.1 1.2 1 66
+ 0.240093 1 3 tcp 1040 ------- 1 1.2 3.1 3 102
- 0.240093 1 3 tcp 1040 ------- 1 1.2 3.1 3 102
+ 0.240093 1 3 tcp 1040 ------- 1 1.2 3.1 4 103
r 0.240093 4 1 ack 40 ------- 1 4.1 1.3 1 67
+ 0.240093 1 4 tcp 1040 ------- 1 1.3 4.1 3 104
- 0.240093 1 4 tcp 1040 ------- 1 1.3 4.1 3 104
+ 0.240093 1 4 tcp 1040 ------- 1 1.3 4.1 4 105
r 0.240093 5 1 ack 40 ------- 1 5.1 1.4 1 68
+ 0.240093 1 5 tcp 1040 ------- 1 1.4 5.1 3 106
- 0.240093 1 5 tcp 1040 ------- 1 1.4 5.1 3 106
+ 0.240093 1 5 tcp 1040 ------- 1 1.4 5.1 4 107
r 0.240093 3 2 ack 40 ------- 1 3.2 2.2 1 69
+ 0.240093 2 3 tcp 1040 ------- 1 2.2 3.2 3 108
- 0.240093 2 3 tcp 1040 ------- 1 2.2 3.2 3 108
+ 0.240093 2 3 tcp 1040 ------- 1 2.2 3.2 4 109
r 0.240093 4 2 ack 40 ------- 1 4.2 2.3 1 70
+ 0.240093 2 4 tcp 1040 ------- 1 2.3 4.2 3 110
- 0.240093 2 4 tcp 1040 ------- 1 2.3 4.2 3 110
+ 0.240093 2 4 tcp 1040 ------- 1 2.3 4.2 4 111
r 0.240093 5 2 ack 40 ------- 1 5.2 2.4 1 71
+ 0.240093 2 5 tcp 1040 ------- 1 2.4 5.2 3 112
- 0.240093 2 5 tcp 1040 ------- 1 2.4 5.2 3 112
+ 0.240093 2 5 tcp 1040 ------- 1 2.4 5.2 4 113
r 0.240093 4 3 ack 40 ------- 1 4.3 3.3 1 72
+ 0.240093 3 4 tcp 1040 ------- 1 3.3 4.3 3 114
- 0.240093 3 4 tcp 1040 ------- 1 3.3 4.3 3 114
+ 0.240093 3 4 tcp 1040 ------- 1 3.3 4.3 4 115
r 0.240093 5 3 ack 40 ------- 1 5.3 3.4 1 73
+ 0.240093 3 5 tcp 1040 ------- 1 3.4 5.3 3 116
- 0.240093 3 5 tcp 1040 ------- 1 3.4 5.3 3 116
+ 0.240093 3 5 tcp 1040 ------- 1 3.4 5.3 4 117
r 0.240093 5 4 ack 40 ------- 1 5.4 4.4 1 74
+ 0.240093 4 5 tcp 1040 ------- 1 4.4 5.4 3 118
- 0.240093 4 5 tcp 1040 ------- 1 4.4 5.4 3 118
+ 0.240093 4 5 tcp 1040 ------- 1 4.4 5.4 4 119
r 0.240176 1 0 ack 40 ------- 1 1.0 0.0 2 75
+ 0.240176 0 1 tcp 1040 ------- 1 0.0 1.0 5 120
+ 0.240176 0 1 tcp 1040 ------- 1 0.0 1.0 6 121
r 0.240176 2 0 ack 40 ------- 1 2.0 0.1 2 76
+ 0.240176 0 2 tcp 1040 ------- 1 0.1 2.0 5 122
+ 0.240176 0 2 tcp 1040 ------- 1 0.1 2.0 6 123
r 0.240176 3 0 ack 40 ------- 1 3.0 0.2 2 77
+ 0.240176 0 3 tcp 1040 ------- 1 0.2 3.0 5 124
+ 0.240176 0 3 tcp 1040 ------- 1 0.2 3.0 6 125
r 0.240176 4 0 ack 40 ------- 1 4.0 0.3 2 78
+ 0.240176 0 4 tcp 1040 ------- 1 0.3 4.0 5 126
+ 0.240176 0 4 tcp 1040 ------- 1 0.3 4.0 6 127
r 0.240176 5 0 ack 40 ------- 1 5.0 0.4 2 79
+ 0.240176 0 5 tcp 1040 ------- 1 0.4 5.0 5 128
+ 0.240176 0 5 tcp 1040 ------- 1 0.4 5.0 6 129
r 0.240176 2 1 ack 40 ------- 1 2.1 1.1 2 80
+ 0.240176 1 2 tcp 1040 ------- 1 1.1 2.1 5 130
+ 0.240176 1 2 tcp 1040 ------- 1 1.1 2.1 6 131
r 0.240176 3 1 ack 40 ------- 1 3.1 1.2 2 81
+ 0.240176 1 3 tcp 1040 ------- 1 1.2 3.1 5 132
+ 0.240176 1 3 tcp 1040 ------- 1 1.2 3.1 6 133
r 0.240176 4 1 ack 40 ------- 1 4.1 1.3 2 82
+ 0.240176 1 4 tcp 1040 ------- 1 1.3 4.1 5 134
+ 0.240176 1 4 tcp 1040 ------- 1 1.3 4.1 6 135
r 0.240176 5 1 ack 40 ------- 1 5.1 1.4 2 83
+ 0.240176 1 5 tcp 1040 ------- 1 1.4 5.1 5 136
+ 0.240176 1 5 tcp 1040 ------- 1 1.4 5.1 6 137
r 0.240176 3 2 ack 40 ------- 1 3.2 2.2 2 84
+ 0.240176 2 3 tcp 1040 ------- 1 2.2 3.2 5 138
+ 0.240176 2 3 tcp 1040 ------- 1 2.2 3.2 6 139
r 0.240176 4 2 ack 40 ------- 1 4.2 2.3 2 85
+ 0.240176 2 4 tcp 1040 ------- 1 2.3 4.2 5 140
+ 0.240176 2 4 tcp 1040 ------- 1 2.3 4.2 6 141
r 0.240176 5 2 ack 40 ------- 1 5.2 2.4 2 86
+ 0.240176 2 5 tcp 1040 ------- 1 2.4 5.2 5 142
+ 0.240176 2 5 tcp 1040 ------- 1 2.4 5.2 6 143
r 0.240176 4 3 ack 40 ------- 1 4.3 3.3 2 87
+ 0.240176 3 4 tcp 1040 ------- 1 3.3 4.3 5 144
+ 0.240176 3 4 tcp 1040 ------- 1 3.3 4.3 6 145
r 0.240176 5 3 ack 40 ------- 1 5.3 3.4 2 88
+ 0.240176 3 5 tcp 1040 ------- 1 3.4 5.3 5 146
+ 0.240176 3 5 tcp 1040 ------- 1 3.4 5.3 6 147
r 0.240176 5 4 ack 40 ------- 1 5.4 4.4 2 89
+ 0.240176 4 5 tcp 1040 ------- 1 4.4 5.4 5 148
+ 0.240176 4 5 tcp 1040 ------- 1 4.4 5.4 6 149
- 0.240176 0 1 tcp 1040 ------- 1 0.0 1.0 4 91
- 0.240176 0 2 tcp 1040 ------- 1 0.1 2.0 4 93
- 0.240176 0 3 tcp 1040 ------- 1 0.2 3.0 4 95
- 0.240176 0 4 tcp 1040 ------- 1 0.3 4.0 4 97
- 0.240176 0 5 tcp 1040 ------- 1 0.4 5.0 4 99
- 0.240176 1 2 tcp 1040 ------- 1 1.1 2.1 4 101
- 0.240176 1 3 tcp 1040 ------- 1 1.2 3.1 4 103
- 0.240176 1 4 tcp 1040 ------- 1 1.3 4.1 4 105
- 0.240176 1 5 tcp 1040 ------- 1 1.4 5.1 4 107
- 0.240176 2 3 tcp 1040 ------- 1 2.2 3.2 4 109
- 0.240176 2 4 tcp 1040 ------- 1 2.3 4.2 4 111
- 0.240176 2 5 tcp 1040 ------- 1 2.4 5.2 4 113
- 0.240176 3 4 tcp 1040 ------- 1 3.3 4.3 4 115
- 0.240176 3 5 tcp 1040 ------- 1 3.4 5.3 4 117
- 0.240176 4 5 tcp 1040 ------- 1 4.4 5.4 4 119
- 0.240259 0 1 tcp 1040 ------- 1 0.0 1.0 5 120
- 0.240259 0 2 tcp 1040 ------- 1 0.1 2.0 5 122
- 0.240259 0 3 tcp 1040 ------- 1 0.2 3.0 5 124
- 0.240259 0 4 tcp 1040 ------- 1 0.3 4.0 5 126
- 0.240259 0 5 tcp 1040 ------- 1 0.4 5.0 5 128
- 0.240259 1 2 tcp 1040 ------- 1 1.1 2.1 5 130
- 0.240259 1 3 tcp 1040 ------- 1 1.2 3.1 5 132
- 0.240259 1 4 tcp 1040 ------- 1 1.3 4.1 5 134
- 0.240259 1 5 tcp 1040 ------- 1 1.4 5.1 5 136
- 0.240259 2 3 tcp 1040 ------- 1 2.2 3.2 5 138
- 0.240259 2 4 tcp 1040 ------- 1 2.3 4.2 5 140
- 0.240259 2 5 tcp 1040 ------- 1 2.4 5.2 5 142
- 0.240259 3 4 tcp 1040 ------- 1 3.3 4.3 5 144
- 0.240259 3 5 tcp 1040 ------- 1 3.4 5.3 5 146
- 0.240259 4 5 tcp 1040 ------- 1 4.4 5.4 5 148
- 0.240342 0 1 tcp 1040 ------- 1 0.0 1.0 6 121
- 0.240342 0 2 tcp 1040 ------- 1 0.1 2.0 6 123
- 0.240342 0 3 tcp 1040 ------- 1 0.2 3.0 6 125
- 0.240342 0 4 tcp 1040 ------- 1 0.3 4.0 6 127
- 0.240342 0 5 tcp 1040 ------- 1 0.4 5.0 6 129
- 0.240342 1 2 tcp 1040 ------- 1 1.1 2.1 6 131
- 0.240342 1 3 tcp 1040 ------- 1 1.2 3.1 6 133
- 0.240342 1 4 tcp 1040 ------- 1 1.3 4.1 6 135
- 0.240342 1 5 tcp 1040 ------- 1 1.4 5.1 6 137
- 0.240342 2 3 tcp 1040 ------- 1 2.2 3.2 6 139
- 0.240342 2 4 tcp 1040 ------- 1 2.3 4.2 6 141
- 0.240342 2 5 tcp 1040 ------- 1 2.4 5.2 6 143
- 0.240342 3 4 tcp 1040 ------- 1 3.3 4.3 6 145
- 0.240342 3 5 tcp 1040 ------- 1 3.4 5.3 6 147
- 0.240342 4 5 tcp 1040 ------- 1 4.4 5.4 6 149
r 0.250176 0 1 tcp 1040 ------- 1 0.0 1.0 3 90
+ 0.250176 1 0 ack 40 ------- 1 1.0 0.0 3 150
- 0.250176 1 0 ack 40 ------- 1 1.0 0.0 3 150
r 0.250176 0 2 tcp 1040 ------- 1 0.1 2.0 3 92
+ 0.250176 2 0 ack 40 ------- 1 2.0 0.1 3 151
- 0.250176 2 0 ack 40 ------- 1 2.0 0.1 3 151
r 0.250176 0 3 tcp 1040 ------- 1 0.2 3.0 3 94
+ 0.250176 3 0 ack 40 ------- 1 3.0 0.2 3 152
- 0.250176 3 0 ack 40 ------- 1 3.0 0.2 3 152
r 0.250176 0 4 tcp 1040 ------- 1 0.3 4.0 3 96
+ 0.250176 4 0 ack 40 ------- 1 4.0 0.3 3 153
- 0.250176 4 0 ack 40 ------- 1 4.0 0.3 3 153
r 0.250176 0 5 tcp 1040 ------- 1 0.4 5.0 3 98
+ 0.250176 5 0 ack 40 ------- 1 5.0 0.4 3 154
- 0.250176 5 0 ack 40 ------- 1 5.0 0.4 3 154
r 0.250176 1 2 tcp 1040 ------- 1 1.1 2.1 3 100
+ 0.250176 2 1 ack 40 ------- 1 2.1 1.1 3 155
- 0.250176 2 1 ack 40 ------- 1 2.1 1.1 3 155
r 0.250176 1 3 tcp 1040 ------- 1 1.2 3.1 3 102
+ 0.250176 3 1 ack 40 ------- 1 3.1 1.2 3 156
- 0.250176 3 1 ack 40 ------- 1 3.1 1.2 3 156
r 0.250176 1 4 tcp 1040 ------- 1 1.3 4.1 3 104
+ 0.250176 4 1 ack 40 ------- 1 4.1 1.3 3 157
- 0.250176 4 1 ack 40 ------- 1 4.1 1.3 3 157
r 0.250176 1 5 tcp 1040 ------- 1 1.4 5.1 3 106
+ 0.250176 5 1 ack 40 ------- 1 5.1 1.4 3 158
- 0.250176 5 1 ack 40 ------- 1 5.1 1.4 3 158
r 0.250176 2 3 tcp 1040 ------- 1 2.2 3.2 3 108
+ 0.250176 3 2 ack 40 ------- 1 3.2 2.2 3 159
- 0.250176 3 2 ack 40 ------- 1 3.2 2.2 3 159
r 0.250176 2 4 tcp 1040 ------- 1 2.3 4.2 3 110
+ 0.250176 4 2 ack 40 ------- 1 4.2 2.3 3 160
- 0.250176 4 2 ack 40 ------- 1 4.2 2.3 3 160
r 0.250176 2 5 tcp 1040 ------- 1 2.4 5.2 3 112
+ 0.250176 5 2 ack 40 ------- 1 5.2 2.4 3 161
- 0.250176 5 2 ack 40 ------- 1 5.2 2.4 3 161
r 0.250176 3 4 tcp 1040 ------- 1 3.3 4.3 3 114
+ 0.250176 4 3 ack 40 ------- 1 4.3 3.3 3 162
- 0.250176 4 3 ack 40 ------- 1 4.3 3.3 3 162
r 0.250176 3 5 tcp 1040 ------- 1 3.4 5.3 3 116
+ 0.250176 5 3 ack 40 ------- 1 5.3 3.4 3 163
- 0.250176 5 3 ack 40 ------- 1 5.3 3.4 3 163
r 0.250176 4 5 tcp 1040 ------- 1 4.4 5.4 3 118
+ 0.250176 5 4 ack 40 ------- 1 5.4 4.4 3 164
- 0.250176 5 4 ack 40 ------- 1 5.4 4.4 3 164
r 0.250259 0 1 tcp 1040 ------- 1 0.0 1.0 4 91
+ 0.250259 1 0 ack 40 ------- 1 1.0 0.0 4 165
- 0.250259 1 0 ack 40 ------- 1 1.0 0.0 4 165
r 0.250259 0 2 tcp 1040 ------- 1 0.1 2.0 4 93
+ 0.250259 2 0 ack 40 ------- 1 2.0 0.1 4 166
- 0.250259 2 0 ack 40 ------- 1 2.0 0.1 4 166
r 0.250259 0 3 tcp 1040 ------- 1 0.2 3.0 4 95
+ 0.250259 3 0 ack 40 ------- 1 3.0 0.2 4 167
- 0.250259 3 0 ack 40 ------- 1 3.0 0.2 4 167
r 0.250259 0 4 tcp 1040 ------- 1 0.3 4.0 4 97
+ 0.250259 4 0 ack 40 ------- 1 4.0 0.3 4 168
- 0.250259 4 0 ack 40 ------- 1 4.0 0.3 4 168
r 0.250259 0 5 tcp 1040 ------- 1 0.4 5.0 4 99
+ 0.250259 5 0 ack 40 ------- 1 5.0 0.4 4 169
- 0.250259 5 0 ack 40 ------- 1 5.0 0.4 4 169
r 0.250259 1 2 tcp 1040 ------- 1 1.1 2.1 4 101
+ 0.250259 2 1 ack 40 ------- 1 2.1 1.1 4 170
- 0.250259 2 1 ack 40 ------- 1 2.1 1.1 4 170
r 0.250259 1 3 tcp 1040 ------- 1 1.2 3.1 4 103
+ 0.250259 3 1 ack 40 ------- 1 3.1 1.2 4 171
- 0.250259 3 1 ack 40 ------- 1 3.1 1.2 4 171
r 0.250259 1 4 tcp 1040 ------- 1 1.3 4.1 4 105
+ 0.250259 4 1 ack 40 ------- 1 4.1 1.3 4 172
- 0.250259 4 1 ack 40 ------- 1 4.1 1.3 4 172
r 0.250259 1 5 tcp 1040 ------- 1 1.4 5.1 4 107
+ 0.250259 5 1 ack 40 ------- 1 5.1 1.4 4 173
- 0.250259 5 1 ack 40 ------- 1 5.1 1.4 4 173
r 0.250259 2 3 tcp 1040 ------- 1 2.2 3.2 4 109
+ 0.250259 3 2 ack 40 ------- 1 3.2 2.2 4 174
- 0.250259 3 2 ack 40 ------- 1 3.2 2.2 4 174
r 0.250259 2 4 tcp 1040 ------- 1 2.3 4.2 4 111
+ 0.250259 4 2 ack 40 ------- 1 4.2 2.3 4 175
- 0.250259 4 2 ack 40 ------- 1 4.2 2.3 4 175
r 0.250259 2 5 tcp 1040 ------- 1 2.4 5.2 4 113
+ 0.250259 5 2 ack 40 ------- 1 5.2 2.4 4 176
- 0.250259 5 2 ack 40 ------- 1 5.2 2.4 4 176
r 0.250259 3 4 tcp 1040 ------- 1 3.3 4.3 4 115
+ 0.250259 4 3 ack 40 ------- 1 4.3 3.3 4 177
- 0.250259 4 3 ack 40 ------- 1 4.3 3.3 4 177
r 0.250259 3 5 tcp 1040 ------- 1 3.4 5.3 4 117
+ 0.250259 5 3 ack 40 ------- 1 5.3 3.4 4 178
- 0.250259 5 3 ack 40 ------- 1 5.3 3.4 4 178
r 0.250259 4 5 tcp 1040 ------- 1 4.4 5.4 4 119
+ 0.250259 5 4 ack 40 ------- 1 5.4 4.4 4 179
- 0.250259 5 4 ack 40 ------- 1 5.4 4.4 4 179
r 0.250342 0 1 tcp 1040 ------- 1 0.0 1.0 5 120
+ 0.250342 1 0 ack 40 ------- 1 1.0 0.0 5 180
- 0.250342 1 0 ack 40 ------- 1 1.0 0.0 5 180
r 0.250342 0 2 tcp 1040 ------- 1 0.1 2.0 5 122
+ 0.250342 2 0 ack 40 ------- 1 2.0 0.1 5 181
- 0.250342 2 0 ack 40 ------- 1 2.0 0.1 5 181
r 0.250342 0 3 tcp 1040 ------- 1 0.2 3.0 5 124
+ 0.250342 3 0 ack 40 ------- 1 3.0 0.2 5 182
- 0.250342 3 0 ack 40 ------- 1 3.0 0.2 5 182
r 0.250342 0 4 tcp 1040 ------- 1 0.3 4.0 5 126
+ 0.250342 4 0 ack 40 ------- 1 4.0 0.3 5 183
- 0.250342 4 0 ack 40 ------- 1 4.0 0.3 5 183
r 0.250342 0 5 tcp 1040 ------- 1 0.4 5.0 5 128
+ 0.250342 5 0 ack 40 ------- 1 5.0 0.4 5 184
- 0.250342 5 0 ack 40 ------- 1 5.0 0.4 5 184
r 0.250342 1 2 tcp 1040 ------- 1 1.1 2.1 5 130
+ 0.250342 2 1 ack 40 ------- 1 2.1 1.1 5 185
- 0.250342 2 1 ack 40 ------- 1 2.1 1.1 5 185
r 0.250342 1 3 tcp 1040 ------- 1 1.2 3.1 5 132
+ 0.250342 3 1 ack 40 ------- 1 3.1 1.2 5 186
- 0.250342 3 1 ack 40 ------- 1 3.1 1.2 5 186
r 0.250342 1 4 tcp 1040 ------- 1 1.3 4.1 5 134
+ 0.250342 4 1 ack 40 ------- 1 4.1 1.3 5 187
- 0.250342 4 1 ack 40 ------- 1 4.1 1.3 5 187
r 0.250342 1 5 tcp 1040 ------- 1 1.4 5.1 5 136
+ 0.250342 5 1 ack 40 ------- 1 5.1 1.4 5 188
- 0.250342 5 1 ack 40 ------- 1 5.1 1.4 5 188
r 0.250342 2 3 tcp 1040 ------- 1 2.2 3.2 5 138
+ 0.250342 3 2 ack 40 ------- 1 3.2 2.2 5 189
- 0.250342 3 2 ack 40 ------- 1 3.2 2.2 5 189
r 0.250342 2 4 tcp 1040 ------- 1 2.3 4.2 5 140
+ 0.250342 4 2 ack 40 ------- 1 4.2 2.3 5 190
- 0.250342 4 2 ack 40 ------- 1 4.2 2.3 5 190
r 0.250342 2 5 tcp 1040 ------- 1 2.4 5.2 5 142
+ 0.250342 5 2 ack 40 ------- 1 5.2 2.4 5 191
- 0.250342 5 2 ack 40 ------- 1 5.2 2.4 5 191
r 0.250342 3 4 tcp 1040 ------- 1 3.3 4.3 5 144
+ 0.250342 4 3 ack 40 ------- 1 4.3 3.3 5 192
- 0.250342 4 3 ack 40 ------- 1 4.3 3.3 5 192
r 0.250342 3 5 tcp 1040 ------- 1 3.4 5.3 5 146
+ 0.250342 5 3 ack 40 ------- 1 5.3 3.4 5 193
- 0.250342 5 3 ack 40 ------- 1 5.3 3.4 5 193
r 0.250342 4 5 tcp 1040 ------- 1 4.4 5.4 5 148
+ 0.250342 5 4 ack 40 ------- 1 5.4 4.4 5 194
- 0.250342 5 4 ack 40 ------- 1 5.4 4.4 5 194
r 0.250426 0 1 tcp 1040 ------- 1 0.0 1.0 6 121
+ 0.250426 1 0 ack 40 ------- 1 1.0 0.0 6 195
- 0.250426 1 0 ack 40 ------- 1 1.0 0.0 6 195
r 0.250426 0 2 tcp 1040 ------- 1 0.1 2.0 6 123
+ 0.250426 2 0 ack 40 ------- 1 2.0 0.1 6 196
- 0.250426 2 0 ack 40 ------- 1 2.0 0.1 6 196
r 0.250426 0 3 tcp 1040 ------- 1 0.2 3.0 6 125
+ 0.250426 3 0 ack 40 ------- 1 3.0 0.2 6 197
- 0.250426 3 0 ack 40 ------- 1 3.0 0.2 6 197
r 0.250426 0 4 tcp 1040 ------- 1 0.3 4.0 6 127
+ 0.250426 4 0 ack 40 ------- 1 4.0 0.3 6 198
- 0.250426 4 0 ack 40 ------- 1 4.0 0.3 6 198
r 0.250426 0 5 tcp 1040 ------- 1 0.4 5.0 6 129
+ 0.250426 5 0 ack 40 ------- 1 5.0 0.4 6 199
- 0.250426 5 0 ack 40 ------- 1 5.0 0.4 6 199
r 0.250426 1 2 tcp 1040 ------- 1 1.1 2.1 6 131
+ 0.250426 2 1 ack 40 ------- 1 2.1 1.1 6 200
- 0.250426 2 1 ack 40 ------- 1 2.1 1.1 6 200
r 0.250426 1 3 tcp 1040 ------- 1 1.2 3.1 6 133
+ 0.250426 3 1 ack 40 ------- 1 3.1 1.2 6 201
- 0.250426 3 1 ack 40 ------- 1 3.1 1.2 6 201
r 0.250426 1 4 tcp 1040 ------- 1 1.3 4.1 6 135
+ 0.250426 4 1 ack 40 ------- 1 4.1 1.3 6 202
- 0.250426 4 1 ack 40 ------- 1 4.1 1.3 6 202
r 0.250426 1 5 tcp 1040 ------- 1 1.4 5.1 6 137
+ 0.250426 5 1 ack 40 ------- 1 5.1 1.4 6 203
- 0.250426 5 1 ack 40 ------- 1 5.1 1.4 6 203
r 0.250426 2 3 tcp 1040 ------- 1 2.2 3.2 6 139
+ 0.250426 3 2 ack 40 ------- 1 3.2 2.2 6 204
- 0.250426 3 2 ack 40 ------- 1 3.2 2.2 6 204
r 0.250426 2 4 tcp 1040 ------- 1 2.3 4.2 6 141
+ 0.250426 4 2 ack 40 ------- 1 4.2 2.3 6 205
- 0.250426 4 2 ack 40 ------- 1 4.2 2.3 6 205
r 0.250426 2 5 tcp 1040 ------- 1 2.4 5.2 6 143
+ 0.250426 5 2 ack 40 ------- 1 5.2 2.4 6 206
- 0.250426 5 2 ack 40 ------- 1 5.2 2.4 6 206
r 0.250426 3 4 tcp 1040 ------- 1 3.3 4.3 6 145
+ 0.250426 4 3 ack 40 ------- 1 4.3 3.3 6 207
- 0.250426 4 3 ack 40 ------- 1 4.3 3.3 6 207
r 0.250426 3 5 tcp 1040 ------- 1 3.4 5.3 6 147
+ 0.250426 5 3 ack 40 ------- 1 5.3 3.4 6 208
- 0.250426 5 3 ack 40 ------- 1 5.3 3.4 6 208
r 0.250426 4 5 tcp 1040 ------- 1 4.4 5.4 6 149
+ 0.250426 5 4 ack 40 ------- 1 5.4 4.4 6 209
- 0.250426 5 4 ack 40 ------- 1 5.4 4.4 6 209
r 0.260179 1 0 ack 40 ------- 1 1.0 0.0 3 150
+ 0.260179 0 1 tcp 1040 ------- 1 0.0 1.0 7 210
- 0.260179 0 1 tcp 1040 ------- 1 0.0 1.0 7 210
+ 0.260179 0 1 tcp 1040 ------- 1 0.0 1.0 8 211
r 0.260179 2 0 ack 40 ------- 1 2.0 0.1 3 151
+ 0.260179 0 2 tcp 1040 ------- 1 0.1 2.0 7 212
- 0.260179 0 2 tcp 1040 ------- 1 0.1 2.0 7 212
+ 0.260179 0 2 tcp 1040 ------- 1 0.1 2.0 8 213
r 0.260179 3 0 ack 40 ------- 1 3.0 0.2 3 152
+ 0.260179 0 3 tcp 1040 ------- 1 0.2 3.0 7 214
- 0.260179 0 3 tcp 1040 ------- 1 0.2 3.0 7 214
+ 0.260179 0 3 tcp 1040 ------- 1 0.2 3.0 8 215
r 0.260179 4 0 ack 40 ------- 1 4.0 0.3 3 153
+ 0.260179 0 4 tcp 1040 ------- 1 0.3 4.0 7 216
- 0.260179 0 4 tcp 1040 ------- 1 0.3 4.0 7 216
+ 0.260179 0 4 tcp 1040 ------- 1 0.3 4.0 8 217
r 0.260179 5 0 ack 40 ------- 1 5.0 0.4 3 154
+ 0.260179 0 5 tcp 1040 ------- 1 0.4 5.0 7 218
- 0.260179 0 5 tcp 1040 ------- 1 0.4 5.0 7 218
+ 0.260179 0 5 tcp 1040 ------- 1 0.4 5.0 8 219
r 0.260179 2 1 ack 40 ------- 1 2.1 1.1 3 155
+ 0.260179 1 2 tcp 1040 ------- 1 1.1 2.1 7 220
- 0.260179 1 2 tcp 1040 ------- 1 1.1 2.1 7 220
+ 0.260179 1 2 tcp 1040 ------- 1 1.1 2.1 8 221
r 0.260179 3 1 ack 40 ------- 1 3.1 1.2 3 156
+ 0.260179 1 3 tcp 1040 ------- 1 1.2 3.1 7 222
- 0.260179 1 3 tcp 1040 ------- 1 1.2 3.1 7 222
+ 0.260179 1 3 tcp 1040 ------- 1 1.2 3.1 8 223
r 0.260179 4 1 ack 40 ------- 1 4.1 1.3 3 157
+ 0.260179 1 4 tcp 1040 ------- 1 1.3 4.1 7 224
- 0.260179 1 4 tcp 1040 ------- 1 1.3 4.1 7 224
+ 0.260179 1 4 tcp 1040 ------- 1 1.3 4.1 8 225
r 0.260179 5 1 ack 40 ------- 1 5.1 1.4 3 158
+ 0.260179 1 5 tcp 1040 ------- 1 1.4 5.1 7 226
- 0.260179 1 5 tcp 1040 ------- 1 1.4 5.1 7 226
+ 0.260179 1 5 tcp 1040 ------- 1 1.4 5.1 8 227
r 0.260179 3 2 ack 40 ------- 1 3.2 2.2 3 159
+ 0.260179 2 3 tcp 1040 ------- 1 2.2 3.2 7 228
- 0.260179 2 3 tcp 1040 ------- 1 2.2 3.2 7 228
+ 0.260179 2 3 tcp 1040 ------- 1 2.2 3.2 8 229
r 0.260179 4 2 ack 40 ------- 1 4.2 2.3 3 160
+ 0.260179 2 4 tcp 1040 ------- 1 2.3 4.2 7 230
- 0.260179 2 4 tcp 1040 ------- 1 2.3 4.2 7 230
+ 0.260179 2 4 tcp 1040 ------- 1 2.3 4.2 8 231
r 0.260179 5 2 ack 40 ------- 1 5.2 2.4 3 161
+ 0.260179 2 5 tcp 1040 ------- 1 2.4 5.2 7 232
- 0.260179 2 5 tcp 1040 ------- 1 2.4 5.2 7 232
+ 0.260179 2 5 tcp 1040 ------- 1 2.4 5.2 8 233
r 0.260179 4 3 ack 40 ------- 1 4.3 3.3 3 162
+ 0.260179 3 4 tcp 1040 ------- 1 3.3 4.3 7 234
- 0.260179 3 4 tcp 1040 ------- 1 3.3 4.3 7 234
+ 0.260179 3 4 tcp 1040 ------- 1 3.3 4.3 8 235
r 0.260179 5 3 ack 40 ------- 1 5.3 3.4 3 163
+ 0.260179 3 5 tcp 1040 ------- 1 3.4 5.3 7 236
- 0.260179 3 5 tcp 1040 ------- 1 3.4 5.3 7 236
+ 0.260179 3 5 tcp 1040 ------- 1 3.4 5.3 8 237
r 0.260179 5 4 ack 40 ------- 1 5.4 4.4 3 164
+ 0.260179 4 5 tcp 1040 ------- 1 4.4 5.4 7 238
- 0.260179 4 5 tcp 1040 ------- 1 4.4 5.4 7 238
+ 0.260179 4 5 tcp 1040 ------- 1 4.4 5.4 8 239
r 0.260262 1 0 ack 40 ------- 1 1.0 0.0 4 165
+ 0.260262 0 1 tcp 1040 ------- 1 0.0 1.0 9 240
+ 0.260262 0 1 tcp 1040 ------- 1 0.0 1.0 10 241
r 0.260262 2 0 ack 40 ------- 1 2.0 0.1 4 166
+ 0.260262 0 2 tcp 1040 ------- 1 0.1 2.0 9 242
+ 0.260262 0 2 tcp 1040 ------- 1 0.1 2.0 10 243
r 0.260262 3 0 ack 40 ------- 1 3.0 0.2 4 167
+ 0.260262 0 3 tcp 1040 ------- 1 0.2 3.0 9 244
+ 0.260262 0 3 tcp 1040 ------- 1 0.2 3.0 10 245
r 0.260262 4 0 ack 40 ------- 1 4.0 0.3 4 168
+ 0.260262 0 4 tcp 1040 ------- 1 0.3 4.0 9 246
+ 0.260262 0 4 tcp 1040 ------- 1 0.3 4.0 10 247
r 0.260262 5 0 ack 40 ------- 1 5.0 0.4 4 169
+ 0.260262 0 5 tcp 1040 ------- 1 0.4 5.0 9 248
+ 0.260262 0 5 tcp 1040 ------- 1 0.4 5.0 10 249
r 0.260262 2 1 ack 40 ------- 1 2.1 1.1 4 170
+ 0.260262 1 2 tcp 1040 ------- 1 1.1 2.1 9 250
+ 0.260262 1 2 tcp 1040 ------- 1 1.1 2.1 10 251
r 0.260262 3 1 ack 40 ------- 1 3.1 1.2 4 171