+ 0.215114 4 5 tcp 40 ------- 1 4.1 5.0 0 0
- 0.215114 4 5 tcp 40 ------- 1 4.1 5.0 0 0
r 0.225116 4 5 tcp 40 ------- 1 4.1 5.0 0 0
+ 0.225116 5 4 ack 40 ------- 1 5.0 4.1 0 1
- 0.225116 5 4 ack 40 ------- 1 5.0 4.1 0 1
r 0.235117 5 4 ack 40 ------- 1 5.0 4.1 0 1
+ 0.235117 4 5 tcp 1040 ------- 1 4.1 5.0 1 2
- 0.235117 4 5 tcp 1040 ------- 1 4.1 5.0 1 2
+ 0.244618 2 3 tcp 40 ------- 1 2.1 3.0 0 3
- 0.244618 2 3 tcp 40 ------- 1 2.1 3.0 0 3
r 0.245159 4 5 tcp 1040 ------- 1 4.1 5.0 1 2
+ 0.245159 5 4 ack 40 ------- 1 5.0 4.1 1 4
- 0.245159 5 4 ack 40 ------- 1 5.0 4.1 1 4
r 0.25462 2 3 tcp 40 ------- 1 2.1 3.0 0 3
+ 0.25462 3 2 ack 40 ------- 1 3.0 2.1 0 5
- 0.25462 3 2 ack 40 ------- 1 3.0 2.1 0 5
r 0.25516 5 4 ack 40 ------- 1 5.0 4.1 1 4
r 0.264621 3 2 ack 40 ------- 1 3.0 2.1 0 5
+ 0.264621 2 3 tcp 1040 ------- 1 2.1 3.0 1 6
- 0.264621 2 3 tcp 1040 ------- 1 2.1 3.0 1 6
r 0.274663 2 3 tcp 1040 ------- 1 2.1 3.0 1 6
+ 0.274663 3 2 ack 40 ------- 1 3.0 2.1 1 7
- 0.274663 3 2 ack 40 ------- 1 3.0 2.1 1 7
r 0.284665 3 2 ack 40 ------- 1 3.0 2.1 1 7
+ 0.285883 5 0 tcp 40 ------- 1 5.1 0.1 0 8
- 0.285883 5 0 tcp 40 ------- 1 5.1 0.1 0 8
r 0.295885 5 0 tcp 40 ------- 1 5.1 0.1 0 8
+ 0.295885 0 5 ack 40 ------- 1 0.1 5.1 0 9
- 0.295885 0 5 ack 40 ------- 1 0.1 5.1 0 9
r 0.305886 0 5 ack 40 ------- 1 0.1 5.1 0 9
+ 0.305886 5 0 tcp 1040 ------- 1 5.1 0.1 1 10
- 0.305886 5 0 tcp 1040 ------- 1 5.1 0.1 1 10
+ 0.307323 5 0 tcp 1040 ------- 1 5.1 0.1 2 11
- 0.307323 5 0 tcp 1040 ------- 1 5.1 0.1 2 11
r 0.315928 5 0 tcp 1040 ------- 1 5.1 0.1 1 10
+ 0.315928 0 5 ack 40 ------- 1 0.1 5.1 1 12
- 0.315928 0 5 ack 40 ------- 1 0.1 5.1 1 12
r 0.317364 5 0 tcp 1040 ------- 1 5.1 0.1 2 11
+ 0.317364 0 5 ack 40 ------- 1 0.1 5.1 2 13
- 0.317364 0 5 ack 40 ------- 1 0.1 5.1 2 13
r 0.32593 0 5 ack 40 ------- 1 0.1 5.1 1 12
r 0.327366 0 5 ack 40 ------- 1 0.1 5.1 2 13
+ 0.3807 0 1 tcp 40 ------- 1 0.0 1.0 0 14
- 0.3807 0 1 tcp 40 ------- 1 0.0 1.0 0 14
+ 0.389522 4 5 tcp 1040 ------- 1 4.1 5.0 2 15
- 0.389522 4 5 tcp 1040 ------- 1 4.1 5.0 2 15
r 0.390702 0 1 tcp 40 ------- 1 0.0 1.0 0 14
+ 0.390702 1 0 ack 40 ------- 1 1.0 0.0 0 16
- 0.390702 1 0 ack 40 ------- 1 1.0 0.0 0 16
r 0.399564 4 5 tcp 1040 ------- 1 4.1 5.0 2 15
+ 0.399564 5 4 ack 40 ------- 1 5.0 4.1 2 17
- 0.399564 5 4 ack 40 ------- 1 5.0 4.1 2 17
r 0.400703 1 0 ack 40 ------- 1 1.0 0.0 0 16
+ 0.400703 0 1 tcp 1040 ------- 1 0.0 1.0 1 18
- 0.400703 0 1 tcp 1040 ------- 1 0.0 1.0 1 18
r 0.409565 5 4 ack 40 ------- 1 5.0 4.1 2 17
r 0.410745 0 1 tcp 1040 ------- 1 0.0 1.0 1 18
+ 0.410745 1 0 ack 40 ------- 1 1.0 0.0 1 19
- 0.410745 1 0 ack 40 ------- 1 1.0 0.0 1 19
+ 0.412665 5 0 tcp 1040 ------- 1 5.1 0.1 3 20
- 0.412665 5 0 tcp 1040 ------- 1 5.1 0.1 3 20
+ 0.417324 3 4 tcp 40 ------- 1 3.1 4.0 0 21
- 0.417324 3 4 tcp 40 ------- 1 3.1 4.0 0 21
r 0.420747 1 0 ack 40 ------- 1 1.0 0.0 1 19
r 0.422707 5 0 tcp 1040 ------- 1 5.1 0.1 3 20
+ 0.422707 0 5 ack 40 ------- 1 0.1 5.1 3 22
- 0.422707 0 5 ack 40 ------- 1 0.1 5.1 3 22
r 0.427326 3 4 tcp 40 ------- 1 3.1 4.0 0 21
+ 0.427326 4 3 ack 40 ------- 1 4.0 3.1 0 23
- 0.427326 4 3 ack 40 ------- 1 4.0 3.1 0 23
r 0.432709 0 5 ack 40 ------- 1 0.1 5.1 3 22
r 0.437327 4 3 ack 40 ------- 1 4.0 3.1 0 23
+ 0.437327 3 4 tcp 1040 ------- 1 3.1 4.0 1 24
- 0.437327 3 4 tcp 1040 ------- 1 3.1 4.0 1 24
r 0.447369 3 4 tcp 1040 ------- 1 3.1 4.0 1 24
+ 0.447369 4 3 ack 40 ------- 1 4.0 3.1 1 25
- 0.447369 4 3 ack 40 ------- 1 4.0 3.1 1 25
r 0.45737 4 3 ack 40 ------- 1 4.0 3.1 1 25
+ 0.478318 5 0 tcp 1040 ------- 1 5.1 0.1 4 26
- 0.478318 5 0 tcp 1040 ------- 1 5.1 0.1 4 26
+ 0.479003 4 5 tcp 1040 ------- 1 4.1 5.0 3 27
- 0.479003 4 5 tcp 1040 ------- 1 4.1 5.0 3 27
+ 0.480917 2 3 tcp 1040 ------- 1 2.1 3.0 2 28
- 0.480917 2 3 tcp 1040 ------- 1 2.1 3.0 2 28
r 0.48836 5 0 tcp 1040 ------- 1 5.1 0.1 4 26
+ 0.48836 0 5 ack 40 ------- 1 0.1 5.1 4 29
- 0.48836 0 5 ack 40 ------- 1 0.1 5.1 4 29
r 0.489045 4 5 tcp 1040 ------- 1 4.1 5.0 3 27
+ 0.489045 5 4 ack 40 ------- 1 5.0 4.1 3 30
- 0.489045 5 4 ack 40 ------- 1 5.0 4.1 3 30
r 0.490958 2 3 tcp 1040 ------- 1 2.1 3.0 2 28
+ 0.490958 3 2 ack 40 ------- 1 3.0 2.1 2 31
- 0.490958 3 2 ack 40 ------- 1 3.0 2.1 2 31
+ 0.493656 3 4 tcp 1040 ------- 1 3.1 4.0 2 32
- 0.493656 3 4 tcp 1040 ------- 1 3.1 4.0 2 32
+ 0.493845 4 5 tcp 1040 ------- 1 4.1 5.0 4 33
- 0.493845 4 5 tcp 1040 ------- 1 4.1 5.0 4 33
r 0.498361 0 5 ack 40 ------- 1 0.1 5.1 4 29
+ 0.498373 2 3 tcp 1040 ------- 1 2.1 3.0 3 34
- 0.498373 2 3 tcp 1040 ------- 1 2.1 3.0 3 34
r 0.499046 5 4 ack 40 ------- 1 5.0 4.1 3 30
r 0.50096 3 2 ack 40 ------- 1 3.0 2.1 2 31
r 0.503698 3 4 tcp 1040 ------- 1 3.1 4.0 2 32
+ 0.503698 4 3 ack 40 ------- 1 4.0 3.1 2 35
- 0.503698 4 3 ack 40 ------- 1 4.0 3.1 2 35
r 0.503887 4 5 tcp 1040 ------- 1 4.1 5.0 4 33
+ 0.503887 5 4 ack 40 ------- 1 5.0 4.1 4 36
- 0.503887 5 4 ack 40 ------- 1 5.0 4.1 4 36
r 0.508414 2 3 tcp 1040 ------- 1 2.1 3.0 3 34
+ 0.508414 3 2 ack 40 ------- 1 3.0 2.1 3 37
- 0.508414 3 2 ack 40 ------- 1 3.0 2.1 3 37
r 0.513699 4 3 ack 40 ------- 1 4.0 3.1 2 35
r 0.513889 5 4 ack 40 ------- 1 5.0 4.1 4 36
+ 0.514495 2 3 tcp 1040 ------- 1 2.1 3.0 4 38
- 0.514495 2 3 tcp 1040 ------- 1 2.1 3.0 4 38
+ 0.515091 5 0 tcp 1040 ------- 1 5.1 0.1 5 39
- 0.515091 5 0 tcp 1040 ------- 1 5.1 0.1 5 39
+ 0.515134 1 2 tcp 40 ------- 1 1.1 2.0 0 40
- 0.515134 1 2 tcp 40 ------- 1 1.1 2.0 0 40
+ 0.516146 0 1 tcp 1040 ------- 1 0.0 1.0 2 41
- 0.516146 0 1 tcp 1040 ------- 1 0.0 1.0 2 41
r 0.518416 3 2 ack 40 ------- 1 3.0 2.1 3 37
r 0.524536 2 3 tcp 1040 ------- 1 2.1 3.0 4 38
+ 0.524536 3 2 ack 40 ------- 1 3.0 2.1 4 42
- 0.524536 3 2 ack 40 ------- 1 3.0 2.1 4 42
r 0.525132 5 0 tcp 1040 ------- 1 5.1 0.1 5 39
+ 0.525132 0 5 ack 40 ------- 1 0.1 5.1 5 43
- 0.525132 0 5 ack 40 ------- 1 0.1 5.1 5 43
r 0.525136 1 2 tcp 40 ------- 1 1.1 2.0 0 40
+ 0.525136 2 1 ack 40 ------- 1 2.0 1.1 0 44
- 0.525136 2 1 ack 40 ------- 1 2.0 1.1 0 44
r 0.526187 0 1 tcp 1040 ------- 1 0.0 1.0 2 41
+ 0.526187 1 0 ack 40 ------- 1 1.0 0.0 2 45
- 0.526187 1 0 ack 40 ------- 1 1.0 0.0 2 45
r 0.534538 3 2 ack 40 ------- 1 3.0 2.1 4 42
r 0.535134 0 5 ack 40 ------- 1 0.1 5.1 5 43
r 0.535138 2 1 ack 40 ------- 1 2.0 1.1 0 44
+ 0.535138 1 2 tcp 1040 ------- 1 1.1 2.0 1 46
- 0.535138 1 2 tcp 1040 ------- 1 1.1 2.0 1 46
+ 0.535138 1 2 tcp 1040 ------- 1 1.1 2.0 2 47
- 0.535179 1 2 tcp 1040 ------- 1 1.1 2.0 2 47
r 0.536189 1 0 ack 40 ------- 1 1.0 0.0 2 45
+ 0.542241 5 0 tcp 1040 ------- 1 5.1 0.1 6 48
- 0.542241 5 0 tcp 1040 ------- 1 5.1 0.1 6 48
r 0.545179 1 2 tcp 1040 ------- 1 1.1 2.0 1 46
+ 0.545179 2 1 ack 40 ------- 1 2.0 1.1 1 49
- 0.545179 2 1 ack 40 ------- 1 2.0 1.1 1 49
r 0.545221 1 2 tcp 1040 ------- 1 1.1 2.0 2 47
+ 0.545221 2 1 ack 40 ------- 1 2.0 1.1 2 50
- 0.545221 2 1 ack 40 ------- 1 2.0 1.1 2 50
r 0.552283 5 0 tcp 1040 ------- 1 5.1 0.1 6 48
+ 0.552283 0 5 ack 40 ------- 1 0.1 5.1 6 51
- 0.552283 0 5 ack 40 ------- 1 0.1 5.1 6 51
+ 0.553451 2 3 tcp 1040 ------- 1 2.1 3.0 5 52
- 0.553451 2 3 tcp 1040 ------- 1 2.1 3.0 5 52
r 0.555181 2 1 ack 40 ------- 1 2.0 1.1 1 49
r 0.555222 2 1 ack 40 ------- 1 2.0 1.1 2 50
r 0.562284 0 5 ack 40 ------- 1 0.1 5.1 6 51
r 0.563493 2 3 tcp 1040 ------- 1 2.1 3.0 5 52
+ 0.563493 3 2 ack 40 ------- 1 3.0 2.1 5 53
- 0.563493 3 2 ack 40 ------- 1 3.0 2.1 5 53
r 0.573495 3 2 ack 40 ------- 1 3.0 2.1 5 53
+ 0.606404 0 1 tcp 1040 ------- 1 0.0 1.0 3 54
- 0.606404 0 1 tcp 1040 ------- 1 0.0 1.0 3 54
r 0.616446 0 1 tcp 1040 ------- 1 0.0 1.0 3 54
+ 0.616446 1 0 ack 40 ------- 1 1.0 0.0 3 55
- 0.616446 1 0 ack 40 ------- 1 1.0 0.0 3 55
+ 0.618346 0 1 tcp 1040 ------- 1 0.0 1.0 4 56
- 0.618346 0 1 tcp 1040 ------- 1 0.0 1.0 4 56
+ 0.623869 0 1 tcp 1040 ------- 1 0.0 1.0 5 57
- 0.623869 0 1 tcp 1040 ------- 1 0.0 1.0 5 57
r 0.626448 1 0 ack 40 ------- 1 1.0 0.0 3 55
r 0.628387 0 1 tcp 1040 ------- 1 0.0 1.0 4 56
+ 0.628387 1 0 ack 40 ------- 1 1.0 0.0 4 58
- 0.628387 1 0 ack 40 ------- 1 1.0 0.0 4 58
+ 0.632824 5 0 tcp 1040 ------- 1 5.1 0.1 7 59
- 0.632824 5 0 tcp 1040 ------- 1 5.1 0.1 7 59
r 0.63391 0 1 tcp 1040 ------- 1 0.0 1.0 5 57
+ 0.63391 1 0 ack 40 ------- 1 1.0 0.0 5 60
- 0.63391 1 0 ack 40 ------- 1 1.0 0.0 5 60
+ 0.635371 0 1 tcp 1040 ------- 1 0.0 1.0 6 61
- 0.635371 0 1 tcp 1040 ------- 1 0.0 1.0 6 61
+ 0.636048 4 5 tcp 1040 ------- 1 4.1 5.0 5 62
- 0.636048 4 5 tcp 1040 ------- 1 4.1 5.0 5 62
r 0.638389 1 0 ack 40 ------- 1 1.0 0.0 4 58
r 0.642866 5 0 tcp 1040 ------- 1 5.1 0.1 7 59
+ 0.642866 0 5 ack 40 ------- 1 0.1 5.1 7 63
- 0.642866 0 5 ack 40 ------- 1 0.1 5.1 7 63
r 0.643912 1 0 ack 40 ------- 1 1.0 0.0 5 60
r 0.645412 0 1 tcp 1040 ------- 1 0.0 1.0 6 61
+ 0.645412 1 0 ack 40 ------- 1 1.0 0.0 6 64
- 0.645412 1 0 ack 40 ------- 1 1.0 0.0 6 64
r 0.646089 4 5 tcp 1040 ------- 1 4.1 5.0 5 62
+ 0.646089 5 4 ack 40 ------- 1 5.0 4.1 5 65
- 0.646089 5 4 ack 40 ------- 1 5.0 4.1 5 65
+ 0.646368 3 4 tcp 1040 ------- 1 3.1 4.0 3 66
- 0.646368 3 4 tcp 1040 ------- 1 3.1 4.0 3 66
r 0.652867 0 5 ack 40 ------- 1 0.1 5.1 7 63
r 0.655414 1 0 ack 40 ------- 1 1.0 0.0 6 64
r 0.656091 5 4 ack 40 ------- 1 5.0 4.1 5 65
r 0.65641 3 4 tcp 1040 ------- 1 3.1 4.0 3 66
+ 0.65641 4 3 ack 40 ------- 1 4.0 3.1 3 67
- 0.65641 4 3 ack 40 ------- 1 4.0 3.1 3 67
r 0.666412 4 3 ack 40 ------- 1 4.0 3.1 3 67
+ 0.698283 3 4 tcp 1040 ------- 1 3.1 4.0 4 68
- 0.698283 3 4 tcp 1040 ------- 1 3.1 4.0 4 68
r 0.708325 3 4 tcp 1040 ------- 1 3.1 4.0 4 68
+ 0.708325 4 3 ack 40 ------- 1 4.0 3.1 4 69
- 0.708325 4 3 ack 40 ------- 1 4.0 3.1 4 69
r 0.718326 4 3 ack 40 ------- 1 4.0 3.1 4 69
+ 0.720921 2 3 tcp 1040 ------- 1 2.1 3.0 6 70
- 0.720921 2 3 tcp 1040 ------- 1 2.1 3.0 6 70
r 0.730963 2 3 tcp 1040 ------- 1 2.1 3.0 6 70
+ 0.730963 3 2 ack 40 ------- 1 3.0 2.1 6 71
- 0.730963 3 2 ack 40 ------- 1 3.0 2.1 6 71
r 0.740964 3 2 ack 40 ------- 1 3.0 2.1 6 71
+ 0.746581 1 2 tcp 1040 ------- 1 1.1 2.0 3 72
- 0.746581 1 2 tcp 1040 ------- 1 1.1 2.0 3 72
r 0.756623 1 2 tcp 1040 ------- 1 1.1 2.0 3 72
+ 0.756623 2 1 ack 40 ------- 1 2.0 1.1 3 73
- 0.756623 2 1 ack 40 ------- 1 2.0 1.1 3 73
r 0.766625 2 1 ack 40 ------- 1 2.0 1.1 3 73
+ 0.786835 1 2 tcp 1040 ------- 1 1.1 2.0 4 74
- 0.786835 1 2 tcp 1040 ------- 1 1.1 2.0 4 74
r 0.796876 1 2 tcp 1040 ------- 1 1.1 2.0 4 74
+ 0.796876 2 1 ack 40 ------- 1 2.0 1.1 4 75
- 0.796876 2 1 ack 40 ------- 1 2.0 1.1 4 75
r 0.806878 2 1 ack 40 ------- 1 2.0 1.1 4 75
+ 0.807448 3 4 tcp 1040 ------- 1 3.1 4.0 5 76
- 0.807448 3 4 tcp 1040 ------- 1 3.1 4.0 5 76
r 0.81749 3 4 tcp 1040 ------- 1 3.1 4.0 5 76
+ 0.81749 4 3 ack 40 ------- 1 4.0 3.1 5 77
- 0.81749 4 3 ack 40 ------- 1 4.0 3.1 5 77
r 0.827491 4 3 ack 40 ------- 1 4.0 3.1 5 77
+ 0.843305 3 4 tcp 1040 ------- 1 3.1 4.0 6 78
- 0.843305 3 4 tcp 1040 ------- 1 3.1 4.0 6 78
+ 0.851722 5 0 tcp 1040 ------- 1 5.1 0.1 8 79
- 0.851722 5 0 tcp 1040 ------- 1 5.1 0.1 8 79
r 0.853347 3 4 tcp 1040 ------- 1 3.1 4.0 6 78
+ 0.853347 4 3 ack 40 ------- 1 4.0 3.1 6 80
- 0.853347 4 3 ack 40 ------- 1 4.0 3.1 6 80
r 0.861763 5 0 tcp 1040 ------- 1 5.1 0.1 8 79
+ 0.861763 0 5 ack 40 ------- 1 0.1 5.1 8 81
- 0.861763 0 5 ack 40 ------- 1 0.1 5.1 8 81
r 0.863348 4 3 ack 40 ------- 1 4.0 3.1 6 80
+ 0.864886 5 0 tcp 1040 ------- 1 5.1 0.1 9 82
- 0.864886 5 0 tcp 1040 ------- 1 5.1 0.1 9 82
r 0.871765 0 5 ack 40 ------- 1 0.1 5.1 8 81
r 0.874927 5 0 tcp 1040 ------- 1 5.1 0.1 9 82
+ 0.874927 0 5 ack 40 ------- 1 0.1 5.1 9 83
- 0.874927 0 5 ack 40 ------- 1 0.1 5.1 9 83
r 0.884929 0 5 ack 40 ------- 1 0.1 5.1 9 83
+ 0.904035 3 4 tcp 1040 ------- 1 3.1 4.0 7 84
- 0.904035 3 4 tcp 1040 ------- 1 3.1 4.0 7 84
r 0.914077 3 4 tcp 1040 ------- 1 3.1 4.0 7 84
+ 0.914077 4 3 ack 40 ------- 1 4.0 3.1 7 85
- 0.914077 4 3 ack 40 ------- 1 4.0 3.1 7 85
+ 0.91941 0 1 tcp 1040 ---A--- 1 0.0 1.0 7 86
- 0.91941 0 1 tcp 1040 ---A--- 1 0.0 1.0 7 86
+ 0.922705 1 2 tcp 1040 ------- 1 1.1 2.0 5 87
- 0.922705 1 2 tcp 1040 ------- 1 1.1 2.0 5 87
r 0.924078 4 3 ack 40 ------- 1 4.0 3.1 7 85
r 0.929452 0 1 tcp 1040 ---A--- 1 0.0 1.0 7 86
+ 0.929452 1 0 ack 40 ------- 1 1.0 0.0 7 88
- 0.929452 1 0 ack 40 ------- 1 1.0 0.0 7 88
+ 0.930394 2 3 tcp 1040 ------- 1 2.1 3.0 7 89
- 0.930394 2 3 tcp 1040 ------- 1 2.1 3.0 7 89
r 0.932747 1 2 tcp 1040 ------- 1 1.1 2.0 5 87
+ 0.932747 2 1 ack 40 ------- 1 2.0 1.1 5 90
- 0.932747 2 1 ack 40 ------- 1 2.0 1.1 5 90
r 0.939453 1 0 ack 40 ------- 1 1.0 0.0 7 88
r 0.940436 2 3 tcp 1040 ------- 1 2.1 3.0 7 89
+ 0.940436 3 2 ack 40 ------- 1 3.0 2.1 7 91
- 0.940436 3 2 ack 40 ------- 1 3.0 2.1 7 91
r 0.942748 2 1 ack 40 ------- 1 2.0 1.1 5 90
r 0.950437 3 2 ack 40 ------- 1 3.0 2.1 7 91
+ 0.962943 3 4 tcp 1040 ------- 1 3.1 4.0 8 92
- 0.962943 3 4 tcp 1040 ------- 1 3.1 4.0 8 92
r 0.972984 3 4 tcp 1040 ------- 1 3.1 4.0 8 92
+ 0.972984 4 3 ack 40 ------- 1 4.0 3.1 8 93
- 0.972984 4 3 ack 40 ------- 1 4.0 3.1 8 93
r 0.982986 4 3 ack 40 ------- 1 4.0 3.1 8 93
+ 0.998894 5 0 tcp 1040 ------- 1 5.1 0.1 10 94
- 0.998894 5 0 tcp 1040 ------- 1 5.1 0.1 10 94
+ 1.004815 0 1 tcp 1040 ------- 1 0.0 1.0 8 95
- 1.004815 0 1 tcp 1040 ------- 1 0.0 1.0 8 95
r 1.008936 5 0 tcp 1040 ------- 1 5.1 0.1 10 94
+ 1.008936 0 5 ack 40 ------- 1 0.1 5.1 10 96
- 1.008936 0 5 ack 40 ------- 1 0.1 5.1 10 96
+ 1.01028 0 1 tcp 1040 ------- 1 0.0 1.0 9 97
- 1.01028 0 1 tcp 1040 ------- 1 0.0 1.0 9 97
r 1.014857 0 1 tcp 1040 ------- 1 0.0 1.0 8 95
+ 1.014857 1 0 ack 40 ------- 1 1.0 0.0 8 98
- 1.014857 1 0 ack 40 ------- 1 1.0 0.0 8 98
r 1.018937 0 5 ack 40 ------- 1 0.1 5.1 10 96
r 1.020322 0 1 tcp 1040 ------- 1 0.0 1.0 9 97
+ 1.020322 1 0 ack 40 ------- 1 1.0 0.0 9 99
- 1.020322 1 0 ack 40 ------- 1 1.0 0.0 9 99
+ 1.023103 5 0 tcp 1040 ------- 1 5.1 0.1 11 100
- 1.023103 5 0 tcp 1040 ------- 1 5.1 0.1 11 100
r 1.024859 1 0 ack 40 ------- 1 1.0 0.0 8 98
r 1.030324 1 0 ack 40 ------- 1 1.0 0.0 9 99
r 1.033144 5 0 tcp 1040 ------- 1 5.1 0.1 11 100
+ 1.033144 0 5 ack 40 ------- 1 0.1 5.1 11 101
- 1.033144 0 5 ack 40 ------- 1 0.1 5.1 11 101
+ 1.036067 0 1 tcp 1040 ------- 1 0.0 1.0 10 102
- 1.036067 0 1 tcp 1040 ------- 1 0.0 1.0 10 102
+ 1.042077 2 3 tcp 1040 ------- 1 2.1 3.0 8 103
- 1.042077 2 3 tcp 1040 ------- 1 2.1 3.0 8 103
r 1.043146 0 5 ack 40 ------- 1 0.1 5.1 11 101
r 1.046109 0 1 tcp 1040 ------- 1 0.0 1.0 10 102
+ 1.046109 1 0 ack 40 ------- 1 1.0 0.0 10 104
- 1.046109 1 0 ack 40 ------- 1 1.0 0.0 10 104
r 1.052118 2 3 tcp 1040 ------- 1 2.1 3.0 8 103
+ 1.052118 3 2 ack 40 ------- 1 3.0 2.1 8 105
- 1.052118 3 2 ack 40 ------- 1 3.0 2.1 8 105
r 1.056111 1 0 ack 40 ------- 1 1.0 0.0 10 104
r 1.06212 3 2 ack 40 ------- 1 3.0 2.1 8 105
+ 1.072461 0 1 tcp 1040 ------- 1 0.0 1.0 11 106
- 1.072461 0 1 tcp 1040 ------- 1 0.0 1.0 11 106
+ 1.074889 0 1 tcp 1040 ------- 1 0.0 1.0 12 107
- 1.074889 0 1 tcp 1040 ------- 1 0.0 1.0 12 107
r 1.082502 0 1 tcp 1040 ------- 1 0.0 1.0 11 106
+ 1.082502 1 0 ack 40 ------- 1 1.0 0.0 11 108
- 1.082502 1 0 ack 40 ------- 1 1.0 0.0 11 108
r 1.084931 0 1 tcp 1040 ------- 1 0.0 1.0 12 107
+ 1.084931 1 0 ack 40 ------- 1 1.0 0.0 12 109
- 1.084931 1 0 ack 40 ------- 1 1.0 0.0 12 109
+ 1.088791 4 5 tcp 1040 ---A--- 1 4.1 5.0 6 110
- 1.088791 4 5 tcp 1040 ---A--- 1 4.1 5.0 6 110
r 1.092504 1 0 ack 40 ------- 1 1.0 0.0 11 108
r 1.094932 1 0 ack 40 ------- 1 1.0 0.0 12 109
r 1.098833 4 5 tcp 1040 ---A--- 1 4.1 5.0 6 110
+ 1.098833 5 4 ack 40 ------- 1 5.0 4.1 6 111
- 1.098833 5 4 ack 40 ------- 1 5.0 4.1 6 111
r 1.108835 5 4 ack 40 ------- 1 5.0 4.1 6 111
+ 1.131028 3 4 tcp 1040 ------- 1 3.1 4.0 9 112
- 1.131028 3 4 tcp 1040 ------- 1 3.1 4.0 9 112
r 1.14107 3 4 tcp 1040 ------- 1 3.1 4.0 9 112
+ 1.14107 4 3 ack 40 ------- 1 4.0 3.1 9 113
- 1.14107 4 3 ack 40 ------- 1 4.0 3.1 9 113
r 1.151071 4 3 ack 40 ------- 1 4.0 3.1 9 113
+ 1.159776 4 5 tcp 1040 ------- 1 4.1 5.0 7 114
- 1.159776 4 5 tcp 1040 ------- 1 4.1 5.0 7 114
r 1.169817 4 5 tcp 1040 ------- 1 4.1 5.0 7 114
+ 1.169817 5 4 ack 40 ------- 1 5.0 4.1 7 115
- 1.169817 5 4 ack 40 ------- 1 5.0 4.1 7 115
+ 1.174266 4 5 tcp 1040 ------- 1 4.1 5.0 8 116
- 1.174266 4 5 tcp 1040 ------- 1 4.1 5.0 8 116
r 1.179819 5 4 ack 40 ------- 1 5.0 4.1 7 115
+ 1.180735 5 0 tcp 1040 ------- 1 5.1 0.1 12 117
- 1.180735 5 0 tcp 1040 ------- 1 5.1 0.1 12 117
r 1.184308 4 5 tcp 1040 ------- 1 4.1 5.0 8 116
+ 1.184308 5 4 ack 40 ------- 1 5.0 4.1 8 118
- 1.184308 5 4 ack 40 ------- 1 5.0 4.1 8 118
r 1.190777 5 0 tcp 1040 ------- 1 5.1 0.1 12 117
+ 1.190777 0 5 ack 40 ------- 1 0.1 5.1 12 119
- 1.190777 0 5 ack 40 ------- 1 0.1 5.1 12 119
r 1.194309 5 4 ack 40 ------- 1 5.0 4.1 8 118
r 1.200778 0 5 ack 40 ------- 1 0.1 5.1 12 119
