+ 0.215114 4 5 tcp 40 ------- 1 4.1 5.0 0 0
- 0.215114 4 5 tcp 40 ------- 1 4.1 5.0 0 0
r 0.225146 4 5 tcp 40 ------- 1 4.1 5.0 0 0
+ 0.225146 5 4 ack 40 ------- 1 5.0 4.1 0 1
- 0.225146 5 4 ack 40 ------- 1 5.0 4.1 0 1
r 0.235178 5 4 ack 40 ------- 1 5.0 4.1 0 1
+ 0.235178 4 5 tcp 1040 ------- 1 4.1 5.0 1 2
- 0.235178 4 5 tcp 1040 ------- 1 4.1 5.0 1 2
+ 0.244618 2 3 tcp 40 ------- 1 2.1 3.0 0 3
- 0.244618 2 3 tcp 40 ------- 1 2.1 3.0 0 3
r 0.24601 4 5 tcp 1040 ------- 1 4.1 5.0 1 2
+ 0.24601 5 4 ack 40 ------- 1 5.0 4.1 1 4
- 0.24601 5 4 ack 40 ------- 1 5.0 4.1 1 4
r 0.25465 2 3 tcp 40 ------- 1 2.1 3.0 0 3
+ 0.25465 3 2 ack 40 ------- 1 3.0 2.1 0 5
- 0.25465 3 2 ack 40 ------- 1 3.0 2.1 0 5
r 0.256042 5 4 ack 40 ------- 1 5.0 4.1 1 4
r 0.264682 3 2 ack 40 ------- 1 3.0 2.1 0 5
+ 0.264682 2 3 tcp 1040 ------- 1 2.1 3.0 1 6
- 0.264682 2 3 tcp 1040 ------- 1 2.1 3.0 1 6
r 0.275514 2 3 tcp 1040 ------- 1 2.1 3.0 1 6
+ 0.275514 3 2 ack 40 ------- 1 3.0 2.1 1 7
- 0.275514 3 2 ack 40 ------- 1 3.0 2.1 1 7
r 0.285546 3 2 ack 40 ------- 1 3.0 2.1 1 7
+ 0.285883 5 0 tcp 40 ------- 1 5.1 0.1 0 8
- 0.285883 5 0 tcp 40 ------- 1 5.1 0.1 0 8
r 0.295915 5 0 tcp 40 ------- 1 5.1 0.1 0 8
+ 0.295915 0 5 ack 40 ------- 1 0.1 5.1 0 9
- 0.295915 0 5 ack 40 ------- 1 0.1 5.1 0 9
r 0.305947 0 5 ack 40 ------- 1 0.1 5.1 0 9
+ 0.305947 5 0 tcp 1040 ------- 1 5.1 0.1 1 10
- 0.305947 5 0 tcp 1040 ------- 1 5.1 0.1 1 10
+ 0.307323 5 0 tcp 1040 ------- 1 5.1 0.1 2 11
- 0.307323 5 0 tcp 1040 ------- 1 5.1 0.1 2 11
r 0.316779 5 0 tcp 1040 ------- 1 5.1 0.1 1 10
+ 0.316779 0 5 ack 40 ------- 1 0.1 5.1 1 12
- 0.316779 0 5 ack 40 ------- 1 0.1 5.1 1 12
r 0.318155 5 0 tcp 1040 ------- 1 5.1 0.1 2 11
+ 0.318155 0 5 ack 40 ------- 1 0.1 5.1 2 13
- 0.318155 0 5 ack 40 ------- 1 0.1 5.1 2 13
r 0.326811 0 5 ack 40 ------- 1 0.1 5.1 1 12
r 0.328187 0 5 ack 40 ------- 1 0.1 5.1 2 13
+ 0.3807 0 1 tcp 40 ------- 1 0.0 1.0 0 14
- 0.3807 0 1 tcp 40 ------- 1 0.0 1.0 0 14
+ 0.389522 4 5 tcp 1040 ------- 1 4.1 5.0 2 15
- 0.389522 4 5 tcp 1040 ------- 1 4.1 5.0 2 15
r 0.390732 0 1 tcp 40 ------- 1 0.0 1.0 0 14
+ 0.390732 1 0 ack 40 ------- 1 1.0 0.0 0 16
- 0.390732 1 0 ack 40 ------- 1 1.0 0.0 0 16
r 0.400354 4 5 tcp 1040 ------- 1 4.1 5.0 2 15
+ 0.400354 5 4 ack 40 ------- 1 5.0 4.1 2 17
- 0.400354 5 4 ack 40 ------- 1 5.0 4.1 2 17
r 0.400764 1 0 ack 40 ------- 1 1.0 0.0 0 16
+ 0.400764 0 1 tcp 1040 ------- 1 0.0 1.0 1 18
- 0.400764 0 1 tcp 1040 ------- 1 0.0 1.0 1 18
r 0.410386 5 4 ack 40 ------- 1 5.0 4.1 2 17
r 0.411596 0 1 tcp 1040 ------- 1 0.0 1.0 1 18
+ 0.411596 1 0 ack 40 ------- 1 1.0 0.0 1 19
- 0.411596 1 0 ack 40 ------- 1 1.0 0.0 1 19
+ 0.412665 5 0 tcp 1040 ------- 1 5.1 0.1 3 20
- 0.412665 5 0 tcp 1040 ------- 1 5.1 0.1 3 20
+ 0.417324 3 4 tcp 40 ------- 1 3.1 4.0 0 21
- 0.417324 3 4 tcp 40 ------- 1 3.1 4.0 0 21
r 0.421628 1 0 ack 40 ------- 1 1.0 0.0 1 19
r 0.423497 5 0 tcp 1040 ------- 1 5.1 0.1 3 20
+ 0.423497 0 5 ack 40 ------- 1 0.1 5.1 3 22
- 0.423497 0 5 ack 40 ------- 1 0.1 5.1 3 22
r 0.427356 3 4 tcp 40 ------- 1 3.1 4.0 0 21
+ 0.427356 4 3 ack 40 ------- 1 4.0 3.1 0 23
- 0.427356 4 3 ack 40 ------- 1 4.0 3.1 0 23
r 0.433529 0 5 ack 40 ------- 1 0.1 5.1 3 22
r 0.437388 4 3 ack 40 ------- 1 4.0 3.1 0 23
+ 0.437388 3 4 tcp 1040 ------- 1 3.1 4.0 1 24
- 0.437388 3 4 tcp 1040 ------- 1 3.1 4.0 1 24
r 0.44822 3 4 tcp 1040 ------- 1 3.1 4.0 1 24
+ 0.44822 4 3 ack 40 ------- 1 4.0 3.1 1 25
- 0.44822 4 3 ack 40 ------- 1 4.0 3.1 1 25
r 0.458252 4 3 ack 40 ------- 1 4.0 3.1 1 25
+ 0.478318 5 0 tcp 1040 ------- 1 5.1 0.1 4 26
- 0.478318 5 0 tcp 1040 ------- 1 5.1 0.1 4 26
+ 0.479003 4 5 tcp 1040 ------- 1 4.1 5.0 3 27
- 0.479003 4 5 tcp 1040 ------- 1 4.1 5.0 3 27
+ 0.480917 2 3 tcp 1040 ------- 1 2.1 3.0 2 28
- 0.480917 2 3 tcp 1040 ------- 1 2.1 3.0 2 28
r 0.48915 5 0 tcp 1040 ------- 1 5.1 0.1 4 26
+ 0.48915 0 5 ack 40 ------- 1 0.1 5.1 4 29
- 0.48915 0 5 ack 40 ------- 1 0.1 5.1 4 29
r 0.489835 4 5 tcp 1040 ------- 1 4.1 5.0 3 27
+ 0.489835 5 4 ack 40 ------- 1 5.0 4.1 3 30
- 0.489835 5 4 ack 40 ------- 1 5.0 4.1 3 30
r 0.491749 2 3 tcp 1040 ------- 1 2.1 3.0 2 28
+ 0.491749 3 2 ack 40 ------- 1 3.0 2.1 2 31
- 0.491749 3 2 ack 40 ------- 1 3.0 2.1 2 31
+ 0.493656 3 4 tcp 1040 ------- 1 3.1 4.0 2 32
- 0.493656 3 4 tcp 1040 ------- 1 3.1 4.0 2 32
+ 0.493845 4 5 tcp 1040 ------- 1 4.1 5.0 4 33
- 0.493845 4 5 tcp 1040 ------- 1 4.1 5.0 4 33
+ 0.498373 2 3 tcp 1040 ------- 1 2.1 3.0 3 34
- 0.498373 2 3 tcp 1040 ------- 1 2.1 3.0 3 34
r 0.499182 0 5 ack 40 ------- 1 0.1 5.1 4 29
r 0.499867 5 4 ack 40 ------- 1 5.0 4.1 3 30
r 0.501781 3 2 ack 40 ------- 1 3.0 2.1 2 31
r 0.504488 3 4 tcp 1040 ------- 1 3.1 4.0 2 32
+ 0.504488 4 3 ack 40 ------- 1 4.0 3.1 2 35
- 0.504488 4 3 ack 40 ------- 1 4.0 3.1 2 35
r 0.504677 4 5 tcp 1040 ------- 1 4.1 5.0 4 33
+ 0.504677 5 4 ack 40 ------- 1 5.0 4.1 4 36
- 0.504677 5 4 ack 40 ------- 1 5.0 4.1 4 36
r 0.509205 2 3 tcp 1040 ------- 1 2.1 3.0 3 34
+ 0.509205 3 2 ack 40 ------- 1 3.0 2.1 3 37
- 0.509205 3 2 ack 40 ------- 1 3.0 2.1 3 37
+ 0.514495 2 3 tcp 1040 ------- 1 2.1 3.0 4 38
- 0.514495 2 3 tcp 1040 ------- 1 2.1 3.0 4 38
r 0.51452 4 3 ack 40 ------- 1 4.0 3.1 2 35
r 0.514709 5 4 ack 40 ------- 1 5.0 4.1 4 36
+ 0.515091 5 0 tcp 1040 ------- 1 5.1 0.1 5 39
- 0.515091 5 0 tcp 1040 ------- 1 5.1 0.1 5 39
+ 0.515134 1 2 tcp 40 ------- 1 1.1 2.0 0 40
- 0.515134 1 2 tcp 40 ------- 1 1.1 2.0 0 40
+ 0.516146 0 1 tcp 1040 ------- 1 0.0 1.0 2 41
- 0.516146 0 1 tcp 1040 ------- 1 0.0 1.0 2 41
r 0.519237 3 2 ack 40 ------- 1 3.0 2.1 3 37
r 0.525166 1 2 tcp 40 ------- 1 1.1 2.0 0 40
+ 0.525166 2 1 ack 40 ------- 1 2.0 1.1 0 42
- 0.525166 2 1 ack 40 ------- 1 2.0 1.1 0 42
r 0.525327 2 3 tcp 1040 ------- 1 2.1 3.0 4 38
+ 0.525327 3 2 ack 40 ------- 1 3.0 2.1 4 43
- 0.525327 3 2 ack 40 ------- 1 3.0 2.1 4 43
r 0.525923 5 0 tcp 1040 ------- 1 5.1 0.1 5 39
+ 0.525923 0 5 ack 40 ------- 1 0.1 5.1 5 44
- 0.525923 0 5 ack 40 ------- 1 0.1 5.1 5 44
r 0.526978 0 1 tcp 1040 ------- 1 0.0 1.0 2 41
+ 0.526978 1 0 ack 40 ------- 1 1.0 0.0 2 45
- 0.526978 1 0 ack 40 ------- 1 1.0 0.0 2 45
r 0.535198 2 1 ack 40 ------- 1 2.0 1.1 0 42
+ 0.535198 1 2 tcp 1040 ------- 1 1.1 2.0 1 46
- 0.535198 1 2 tcp 1040 ------- 1 1.1 2.0 1 46
+ 0.535198 1 2 tcp 1040 ------- 1 1.1 2.0 2 47
r 0.535359 3 2 ack 40 ------- 1 3.0 2.1 4 43
r 0.535955 0 5 ack 40 ------- 1 0.1 5.1 5 44
- 0.53603 1 2 tcp 1040 ------- 1 1.1 2.0 2 47
r 0.53701 1 0 ack 40 ------- 1 1.0 0.0 2 45
+ 0.542241 5 0 tcp 1040 ------- 1 5.1 0.1 6 48
- 0.542241 5 0 tcp 1040 ------- 1 5.1 0.1 6 48
r 0.54603 1 2 tcp 1040 ------- 1 1.1 2.0 1 46
+ 0.54603 2 1 ack 40 ------- 1 2.0 1.1 1 49
- 0.54603 2 1 ack 40 ------- 1 2.0 1.1 1 49
r 0.546862 1 2 tcp 1040 ------- 1 1.1 2.0 2 47
+ 0.546862 2 1 ack 40 ------- 1 2.0 1.1 2 50
- 0.546862 2 1 ack 40 ------- 1 2.0 1.1 2 50
r 0.553073 5 0 tcp 1040 ------- 1 5.1 0.1 6 48
+ 0.553073 0 5 ack 40 ------- 1 0.1 5.1 6 51
- 0.553073 0 5 ack 40 ------- 1 0.1 5.1 6 51
+ 0.553451 2 3 tcp 1040 ------- 1 2.1 3.0 5 52
- 0.553451 2 3 tcp 1040 ------- 1 2.1 3.0 5 52
r 0.556062 2 1 ack 40 ------- 1 2.0 1.1 1 49
r 0.556894 2 1 ack 40 ------- 1 2.0 1.1 2 50
r 0.563105 0 5 ack 40 ------- 1 0.1 5.1 6 51
r 0.564283 2 3 tcp 1040 ------- 1 2.1 3.0 5 52
+ 0.564283 3 2 ack 40 ------- 1 3.0 2.1 5 53
- 0.564283 3 2 ack 40 ------- 1 3.0 2.1 5 53
r 0.574315 3 2 ack 40 ------- 1 3.0 2.1 5 53
+ 0.606404 0 1 tcp 1040 ------- 1 0.0 1.0 3 54
- 0.606404 0 1 tcp 1040 ------- 1 0.0 1.0 3 54
r 0.617236 0 1 tcp 1040 ------- 1 0.0 1.0 3 54
+ 0.617236 1 0 ack 40 ------- 1 1.0 0.0 3 55
- 0.617236 1 0 ack 40 ------- 1 1.0 0.0 3 55
+ 0.618346 0 1 tcp 1040 ------- 1 0.0 1.0 4 56
- 0.618346 0 1 tcp 1040 ------- 1 0.0 1.0 4 56
+ 0.623869 0 1 tcp 1040 ------- 1 0.0 1.0 5 57
- 0.623869 0 1 tcp 1040 ------- 1 0.0 1.0 5 57
r 0.627268 1 0 ack 40 ------- 1 1.0 0.0 3 55
r 0.629178 0 1 tcp 1040 ------- 1 0.0 1.0 4 56
+ 0.629178 1 0 ack 40 ------- 1 1.0 0.0 4 58
- 0.629178 1 0 ack 40 ------- 1 1.0 0.0 4 58
+ 0.632824 5 0 tcp 1040 ------- 1 5.1 0.1 7 59
- 0.632824 5 0 tcp 1040 ------- 1 5.1 0.1 7 59
r 0.634701 0 1 tcp 1040 ------- 1 0.0 1.0 5 57
+ 0.634701 1 0 ack 40 ------- 1 1.0 0.0 5 60
- 0.634701 1 0 ack 40 ------- 1 1.0 0.0 5 60
+ 0.635371 0 1 tcp 1040 ------- 1 0.0 1.0 6 61
- 0.635371 0 1 tcp 1040 ------- 1 0.0 1.0 6 61
+ 0.636048 4 5 tcp 1040 ------- 1 4.1 5.0 5 62
- 0.636048 4 5 tcp 1040 ------- 1 4.1 5.0 5 62
r 0.63921 1 0 ack 40 ------- 1 1.0 0.0 4 58
r 0.643656 5 0 tcp 1040 ------- 1 5.1 0.1 7 59
+ 0.643656 0 5 ack 40 ------- 1 0.1 5.1 7 63
- 0.643656 0 5 ack 40 ------- 1 0.1 5.1 7 63
r 0.644733 1 0 ack 40 ------- 1 1.0 0.0 5 60
r 0.646203 0 1 tcp 1040 ------- 1 0.0 1.0 6 61
+ 0.646203 1 0 ack 40 ------- 1 1.0 0.0 6 64
- 0.646203 1 0 ack 40 ------- 1 1.0 0.0 6 64
+ 0.646368 3 4 tcp 1040 ------- 1 3.1 4.0 3 65
- 0.646368 3 4 tcp 1040 ------- 1 3.1 4.0 3 65
r 0.64688 4 5 tcp 1040 ------- 1 4.1 5.0 5 62
+ 0.64688 5 4 ack 40 ------- 1 5.0 4.1 5 66
- 0.64688 5 4 ack 40 ------- 1 5.0 4.1 5 66
r 0.653688 0 5 ack 40 ------- 1 0.1 5.1 7 63
r 0.656235 1 0 ack 40 ------- 1 1.0 0.0 6 64
r 0.656912 5 4 ack 40 ------- 1 5.0 4.1 5 66
r 0.6572 3 4 tcp 1040 ------- 1 3.1 4.0 3 65
+ 0.6572 4 3 ack 40 ------- 1 4.0 3.1 3 67
- 0.6572 4 3 ack 40 ------- 1 4.0 3.1 3 67
r 0.667232 4 3 ack 40 ------- 1 4.0 3.1 3 67
+ 0.698283 3 4 tcp 1040 ------- 1 3.1 4.0 4 68
- 0.698283 3 4 tcp 1040 ------- 1 3.1 4.0 4 68
r 0.709115 3 4 tcp 1040 ------- 1 3.1 4.0 4 68
+ 0.709115 4 3 ack 40 ------- 1 4.0 3.1 4 69
- 0.709115 4 3 ack 40 ------- 1 4.0 3.1 4 69
r 0.719147 4 3 ack 40 ------- 1 4.0 3.1 4 69
+ 0.720921 2 3 tcp 1040 ------- 1 2.1 3.0 6 70
- 0.720921 2 3 tcp 1040 ------- 1 2.1 3.0 6 70
r 0.731753 2 3 tcp 1040 ------- 1 2.1 3.0 6 70
+ 0.731753 3 2 ack 40 ------- 1 3.0 2.1 6 71
- 0.731753 3 2 ack 40 ------- 1 3.0 2.1 6 71
r 0.741785 3 2 ack 40 ------- 1 3.0 2.1 6 71
+ 0.746581 1 2 tcp 1040 ------- 1 1.1 2.0 3 72
- 0.746581 1 2 tcp 1040 ------- 1 1.1 2.0 3 72
r 0.757413 1 2 tcp 1040 ------- 1 1.1 2.0 3 72
+ 0.757413 2 1 ack 40 ------- 1 2.0 1.1 3 73
- 0.757413 2 1 ack 40 ------- 1 2.0 1.1 3 73
r 0.767445 2 1 ack 40 ------- 1 2.0 1.1 3 73
+ 0.786835 1 2 tcp 1040 ------- 1 1.1 2.0 4 74
- 0.786835 1 2 tcp 1040 ------- 1 1.1 2.0 4 74
r 0.797667 1 2 tcp 1040 ------- 1 1.1 2.0 4 74
+ 0.797667 2 1 ack 40 ------- 1 2.0 1.1 4 75
- 0.797667 2 1 ack 40 ------- 1 2.0 1.1 4 75
+ 0.807448 3 4 tcp 1040 ------- 1 3.1 4.0 5 76
- 0.807448 3 4 tcp 1040 ------- 1 3.1 4.0 5 76
r 0.807699 2 1 ack 40 ------- 1 2.0 1.1 4 75
r 0.81828 3 4 tcp 1040 ------- 1 3.1 4.0 5 76
+ 0.81828 4 3 ack 40 ------- 1 4.0 3.1 5 77
- 0.81828 4 3 ack 40 ------- 1 4.0 3.1 5 77
r 0.828312 4 3 ack 40 ------- 1 4.0 3.1 5 77
+ 0.843305 3 4 tcp 1040 ------- 1 3.1 4.0 6 78
- 0.843305 3 4 tcp 1040 ------- 1 3.1 4.0 6 78
+ 0.851722 5 0 tcp 1040 ------- 1 5.1 0.1 8 79
- 0.851722 5 0 tcp 1040 ------- 1 5.1 0.1 8 79
r 0.854137 3 4 tcp 1040 ------- 1 3.1 4.0 6 78
+ 0.854137 4 3 ack 40 ------- 1 4.0 3.1 6 80
- 0.854137 4 3 ack 40 ------- 1 4.0 3.1 6 80
r 0.862554 5 0 tcp 1040 ------- 1 5.1 0.1 8 79
+ 0.862554 0 5 ack 40 ------- 1 0.1 5.1 8 81
- 0.862554 0 5 ack 40 ------- 1 0.1 5.1 8 81
r 0.864169 4 3 ack 40 ------- 1 4.0 3.1 6 80
+ 0.864886 5 0 tcp 1040 ------- 1 5.1 0.1 9 82
- 0.864886 5 0 tcp 1040 ------- 1 5.1 0.1 9 82
r 0.872586 0 5 ack 40 ------- 1 0.1 5.1 8 81
r 0.875718 5 0 tcp 1040 ------- 1 5.1 0.1 9 82
+ 0.875718 0 5 ack 40 ------- 1 0.1 5.1 9 83
- 0.875718 0 5 ack 40 ------- 1 0.1 5.1 9 83
r 0.88575 0 5 ack 40 ------- 1 0.1 5.1 9 83
+ 0.904035 3 4 tcp 1040 ------- 1 3.1 4.0 7 84
- 0.904035 3 4 tcp 1040 ------- 1 3.1 4.0 7 84
r 0.914867 3 4 tcp 1040 ------- 1 3.1 4.0 7 84
+ 0.914867 4 3 ack 40 ------- 1 4.0 3.1 7 85
- 0.914867 4 3 ack 40 ------- 1 4.0 3.1 7 85
+ 0.91941 0 1 tcp 1040 ---A--- 1 0.0 1.0 7 86
- 0.91941 0 1 tcp 1040 ---A--- 1 0.0 1.0 7 86
+ 0.922705 1 2 tcp 1040 ------- 1 1.1 2.0 5 87
- 0.922705 1 2 tcp 1040 ------- 1 1.1 2.0 5 87
r 0.924899 4 3 ack 40 ------- 1 4.0 3.1 7 85
r 0.930242 0 1 tcp 1040 ---A--- 1 0.0 1.0 7 86
+ 0.930242 1 0 ack 40 ------- 1 1.0 0.0 7 88
- 0.930242 1 0 ack 40 ------- 1 1.0 0.0 7 88
+ 0.930394 2 3 tcp 1040 ------- 1 2.1 3.0 7 89
- 0.930394 2 3 tcp 1040 ------- 1 2.1 3.0 7 89
r 0.933537 1 2 tcp 1040 ------- 1 1.1 2.0 5 87
+ 0.933537 2 1 ack 40 ------- 1 2.0 1.1 5 90
- 0.933537 2 1 ack 40 ------- 1 2.0 1.1 5 90
r 0.940274 1 0 ack 40 ------- 1 1.0 0.0 7 88
r 0.941226 2 3 tcp 1040 ------- 1 2.1 3.0 7 89
+ 0.941226 3 2 ack 40 ------- 1 3.0 2.1 7 91
- 0.941226 3 2 ack 40 ------- 1 3.0 2.1 7 91
r 0.943569 2 1 ack 40 ------- 1 2.0 1.1 5 90
r 0.951258 3 2 ack 40 ------- 1 3.0 2.1 7 91
+ 0.962943 3 4 tcp 1040 ------- 1 3.1 4.0 8 92
- 0.962943 3 4 tcp 1040 ------- 1 3.1 4.0 8 92
r 0.973775 3 4 tcp 1040 ------- 1 3.1 4.0 8 92
+ 0.973775 4 3 ack 40 ------- 1 4.0 3.1 8 93
- 0.973775 4 3 ack 40 ------- 1 4.0 3.1 8 93
r 0.983807 4 3 ack 40 ------- 1 4.0 3.1 8 93
+ 0.998894 5 0 tcp 1040 ------- 1 5.1 0.1 10 94
- 0.998894 5 0 tcp 1040 ------- 1 5.1 0.1 10 94
+ 1.004815 0 1 tcp 1040 ------- 1 0.0 1.0 8 95
- 1.004815 0 1 tcp 1040 ------- 1 0.0 1.0 8 95
r 1.009726 5 0 tcp 1040 ------- 1 5.1 0.1 10 94
+ 1.009726 0 5 ack 40 ------- 1 0.1 5.1 10 96
- 1.009726 0 5 ack 40 ------- 1 0.1 5.1 10 96
+ 1.01028 0 1 tcp 1040 ------- 1 0.0 1.0 9 97
- 1.01028 0 1 tcp 1040 ------- 1 0.0 1.0 9 97
r 1.015647 0 1 tcp 1040 ------- 1 0.0 1.0 8 95
+ 1.015647 1 0 ack 40 ------- 1 1.0 0.0 8 98
- 1.015647 1 0 ack 40 ------- 1 1.0 0.0 8 98
r 1.019758 0 5 ack 40 ------- 1 0.1 5.1 10 96
r 1.021112 0 1 tcp 1040 ------- 1 0.0 1.0 9 97
+ 1.021112 1 0 ack 40 ------- 1 1.0 0.0 9 99
- 1.021112 1 0 ack 40 ------- 1 1.0 0.0 9 99
+ 1.023103 5 0 tcp 1040 ------- 1 5.1 0.1 11 100
- 1.023103 5 0 tcp 1040 ------- 1 5.1 0.1 11 100
r 1.025679 1 0 ack 40 ------- 1 1.0 0.0 8 98
r 1.031144 1 0 ack 40 ------- 1 1.0 0.0 9 99
r 1.033935 5 0 tcp 1040 ------- 1 5.1 0.1 11 100
+ 1.033935 0 5 ack 40 ------- 1 0.1 5.1 11 101
- 1.033935 0 5 ack 40 ------- 1 0.1 5.1 11 101
+ 1.036067 0 1 tcp 1040 ------- 1 0.0 1.0 10 102
- 1.036067 0 1 tcp 1040 ------- 1 0.0 1.0 10 102
+ 1.042077 2 3 tcp 1040 ------- 1 2.1 3.0 8 103
- 1.042077 2 3 tcp 1040 ------- 1 2.1 3.0 8 103
r 1.043967 0 5 ack 40 ------- 1 0.1 5.1 11 101
r 1.046899 0 1 tcp 1040 ------- 1 0.0 1.0 10 102
+ 1.046899 1 0 ack 40 ------- 1 1.0 0.0 10 104
- 1.046899 1 0 ack 40 ------- 1 1.0 0.0 10 104
r 1.052909 2 3 tcp 1040 ------- 1 2.1 3.0 8 103
+ 1.052909 3 2 ack 40 ------- 1 3.0 2.1 8 105
- 1.052909 3 2 ack 40 ------- 1 3.0 2.1 8 105
r 1.056931 1 0 ack 40 ------- 1 1.0 0.0 10 104
r 1.062941 3 2 ack 40 ------- 1 3.0 2.1 8 105
+ 1.072461 0 1 tcp 1040 ------- 1 0.0 1.0 11 106
- 1.072461 0 1 tcp 1040 ------- 1 0.0 1.0 11 106
+ 1.074889 0 1 tcp 1040 ------- 1 0.0 1.0 12 107
- 1.074889 0 1 tcp 1040 ------- 1 0.0 1.0 12 107
r 1.083293 0 1 tcp 1040 ------- 1 0.0 1.0 11 106
+ 1.083293 1 0 ack 40 ------- 1 1.0 0.0 11 108
- 1.083293 1 0 ack 40 ------- 1 1.0 0.0 11 108
r 1.085721 0 1 tcp 1040 ------- 1 0.0 1.0 12 107
+ 1.085721 1 0 ack 40 ------- 1 1.0 0.0 12 109
- 1.085721 1 0 ack 40 ------- 1 1.0 0.0 12 109
+ 1.088791 4 5 tcp 1040 ---A--- 1 4.1 5.0 6 110
- 1.088791 4 5 tcp 1040 ---A--- 1 4.1 5.0 6 110
r 1.093325 1 0 ack 40 ------- 1 1.0 0.0 11 108
r 1.095753 1 0 ack 40 ------- 1 1.0 0.0 12 109
r 1.099623 4 5 tcp 1040 ---A--- 1 4.1 5.0 6 110
+ 1.099623 5 4 ack 40 ------- 1 5.0 4.1 6 111
- 1.099623 5 4 ack 40 ------- 1 5.0 4.1 6 111
r 1.109655 5 4 ack 40 ------- 1 5.0 4.1 6 111
+ 1.131028 3 4 tcp 1040 ------- 1 3.1 4.0 9 112
- 1.131028 3 4 tcp 1040 ------- 1 3.1 4.0 9 112
r 1.14186 3 4 tcp 1040 ------- 1 3.1 4.0 9 112
+ 1.14186 4 3 ack 40 ------- 1 4.0 3.1 9 113
- 1.14186 4 3 ack 40 ------- 1 4.0 3.1 9 113
r 1.151892 4 3 ack 40 ------- 1 4.0 3.1 9 113
+ 1.159776 4 5 tcp 1040 ------- 1 4.1 5.0 7 114
- 1.159776 4 5 tcp 1040 ------- 1 4.1 5.0 7 114
r 1.170608 4 5 tcp 1040 ------- 1 4.1 5.0 7 114
+ 1.170608 5 4 ack 40 ------- 1 5.0 4.1 7 115
- 1.170608 5 4 ack 40 ------- 1 5.0 4.1 7 115
+ 1.174266 4 5 tcp 1040 ------- 1 4.1 5.0 8 116
- 1.174266 4 5 tcp 1040 ------- 1 4.1 5.0 8 116
r 1.18064 5 4 ack 40 ------- 1 5.0 4.1 7 115
+ 1.180735 5 0 tcp 1040 ------- 1 5.1 0.1 12 117
- 1.180735 5 0 tcp 1040 ------- 1 5.1 0.1 12 117
r 1.185098 4 5 tcp 1040 ------- 1 4.1 5.0 8 116
+ 1.185098 5 4 ack 40 ------- 1 5.0 4.1 8 118
- 1.185098 5 4 ack 40 ------- 1 5.0 4.1 8 118
r 1.191567 5 0 tcp 1040 ------- 1 5.1 0.1 12 117
+ 1.191567 0 5 ack 40 ------- 1 0.1 5.1 12 119
- 1.191567 0 5 ack 40 ------- 1 0.1 5.1 12 119
r 1.19513 5 4 ack 40 ------- 1 5.0 4.1 8 118
r 1.201599 0 5 ack 40 ------- 1 0.1 5.1 12 119
