+ 0.215114 4 5 tcp 40 ------- 1 4.1 5.0 0 0
- 0.215114 4 5 tcp 40 ------- 1 4.1 5.0 0 0
r 0.225117 4 5 tcp 40 ------- 1 4.1 5.0 0 0
+ 0.225117 5 4 ack 40 ------- 1 5.0 4.1 0 1
- 0.225117 5 4 ack 40 ------- 1 5.0 4.1 0 1
r 0.23512 5 4 ack 40 ------- 1 5.0 4.1 0 1
+ 0.23512 4 5 tcp 1040 ------- 1 4.1 5.0 1 2
- 0.23512 4 5 tcp 1040 ------- 1 4.1 5.0 1 2
+ 0.244618 2 3 tcp 40 ------- 1 2.1 3.0 0 3
- 0.244618 2 3 tcp 40 ------- 1 2.1 3.0 0 3
r 0.245204 4 5 tcp 1040 ------- 1 4.1 5.0 1 2
+ 0.245204 5 4 ack 40 ------- 1 5.0 4.1 1 4
- 0.245204 5 4 ack 40 ------- 1 5.0 4.1 1 4
r 0.254621 2 3 tcp 40 ------- 1 2.1 3.0 0 3
+ 0.254621 3 2 ack 40 ------- 1 3.0 2.1 0 5
- 0.254621 3 2 ack 40 ------- 1 3.0 2.1 0 5
r 0.255207 5 4 ack 40 ------- 1 5.0 4.1 1 4
r 0.264625 3 2 ack 40 ------- 1 3.0 2.1 0 5
+ 0.264625 2 3 tcp 1040 ------- 1 2.1 3.0 1 6
- 0.264625 2 3 tcp 1040 ------- 1 2.1 3.0 1 6
r 0.274708 2 3 tcp 1040 ------- 1 2.1 3.0 1 6
+ 0.274708 3 2 ack 40 ------- 1 3.0 2.1 1 7
- 0.274708 3 2 ack 40 ------- 1 3.0 2.1 1 7
r 0.284711 3 2 ack 40 ------- 1 3.0 2.1 1 7
+ 0.285883 5 0 tcp 40 ------- 1 5.1 0.1 0 8
- 0.285883 5 0 tcp 40 ------- 1 5.1 0.1 0 8
r 0.295886 5 0 tcp 40 ------- 1 5.1 0.1 0 8
+ 0.295886 0 5 ack 40 ------- 1 0.1 5.1 0 9
- 0.295886 0 5 ack 40 ------- 1 0.1 5.1 0 9
r 0.30589 0 5 ack 40 ------- 1 0.1 5.1 0 9
+ 0.30589 5 0 tcp 1040 ------- 1 5.1 0.1 1 10
- 0.30589 5 0 tcp 1040 ------- 1 5.1 0.1 1 10
+ 0.307323 5 0 tcp 1040 ------- 1 5.1 0.1 2 11
- 0.307323 5 0 tcp 1040 ------- 1 5.1 0.1 2 11
r 0.315973 5 0 tcp 1040 ------- 1 5.1 0.1 1 10
+ 0.315973 0 5 ack 40 ------- 1 0.1 5.1 1 12
- 0.315973 0 5 ack 40 ------- 1 0.1 5.1 1 12
r 0.317406 5 0 tcp 1040 ------- 1 5.1 0.1 2 11
+ 0.317406 0 5 ack 40 ------- 1 0.1 5.1 2 13
- 0.317406 0 5 ack 40 ------- 1 0.1 5.1 2 13
r 0.325976 0 5 ack 40 ------- 1 0.1 5.1 1 12
r 0.327409 0 5 ack 40 ------- 1 0.1 5.1 2 13
+ 0.3807 0 1 tcp 40 ------- 1 0.0 1.0 0 14
- 0.3807 0 1 tcp 40 ------- 1 0.0 1.0 0 14
+ 0.389522 4 5 tcp 1040 ------- 1 4.1 5.0 2 15
- 0.389522 4 5 tcp 1040 ------- 1 4.1 5.0 2 15
r 0.390703 0 1 tcp 40 ------- 1 0.0 1.0 0 14
+ 0.390703 1 0 ack 40 ------- 1 1.0 0.0 0 16
- 0.390703 1 0 ack 40 ------- 1 1.0 0.0 0 16
r 0.399605 4 5 tcp 1040 ------- 1 4.1 5.0 2 15
+ 0.399605 5 4 ack 40 ------- 1 5.0 4.1 2 17
- 0.399605 5 4 ack 40 ------- 1 5.0 4.1 2 17
r 0.400707 1 0 ack 40 ------- 1 1.0 0.0 0 16
+ 0.400707 0 1 tcp 1040 ------- 1 0.0 1.0 1 18
- 0.400707 0 1 tcp 1040 ------- 1 0.0 1.0 1 18
r 0.409609 5 4 ack 40 ------- 1 5.0 4.1 2 17
r 0.41079 0 1 tcp 1040 ------- 1 0.0 1.0 1 18
+ 0.41079 1 0 ack 40 ------- 1 1.0 0.0 1 19
- 0.41079 1 0 ack 40 ------- 1 1.0 0.0 1 19
+ 0.412665 5 0 tcp 1040 ------- 1 5.1 0.1 3 20
- 0.412665 5 0 tcp 1040 ------- 1 5.1 0.1 3 20
+ 0.417324 3 4 tcp 40 ------- 1 3.1 4.0 0 21
- 0.417324 3 4 tcp 40 ------- 1 3.1 4.0 0 21
r 0.420793 1 0 ack 40 ------- 1 1.0 0.0 1 19
r 0.422749 5 0 tcp 1040 ------- 1 5.1 0.1 3 20
+ 0.422749 0 5 ack 40 ------- 1 0.1 5.1 3 22
- 0.422749 0 5 ack 40 ------- 1 0.1 5.1 3 22
r 0.427327 3 4 tcp 40 ------- 1 3.1 4.0 0 21
+ 0.427327 4 3 ack 40 ------- 1 4.0 3.1 0 23
- 0.427327 4 3 ack 40 ------- 1 4.0 3.1 0 23
r 0.432752 0 5 ack 40 ------- 1 0.1 5.1 3 22
r 0.43733 4 3 ack 40 ------- 1 4.0 3.1 0 23
+ 0.43733 3 4 tcp 1040 ------- 1 3.1 4.0 1 24
- 0.43733 3 4 tcp 1040 ------- 1 3.1 4.0 1 24
r 0.447414 3 4 tcp 1040 ------- 1 3.1 4.0 1 24
+ 0.447414 4 3 ack 40 ------- 1 4.0 3.1 1 25
- 0.447414 4 3 ack 40 ------- 1 4.0 3.1 1 25
r 0.457417 4 3 ack 40 ------- 1 4.0 3.1 1 25
+ 0.478318 5 0 tcp 1040 ------- 1 5.1 0.1 4 26
- 0.478318 5 0 tcp 1040 ------- 1 5.1 0.1 4 26
+ 0.479003 4 5 tcp 1040 ------- 1 4.1 5.0 3 27
- 0.479003 4 5 tcp 1040 ------- 1 4.1 5.0 3 27
+ 0.480917 2 3 tcp 1040 ------- 1 2.1 3.0 2 28
- 0.480917 2 3 tcp 1040 ------- 1 2.1 3.0 2 28
r 0.488401 5 0 tcp 1040 ------- 1 5.1 0.1 4 26
+ 0.488401 0 5 ack 40 ------- 1 0.1 5.1 4 29
- 0.488401 0 5 ack 40 ------- 1 0.1 5.1 4 29
r 0.489086 4 5 tcp 1040 ------- 1 4.1 5.0 3 27
+ 0.489086 5 4 ack 40 ------- 1 5.0 4.1 3 30
- 0.489086 5 4 ack 40 ------- 1 5.0 4.1 3 30
r 0.491 2 3 tcp 1040 ------- 1 2.1 3.0 2 28
+ 0.491 3 2 ack 40 ------- 1 3.0 2.1 2 31
- 0.491 3 2 ack 40 ------- 1 3.0 2.1 2 31
+ 0.493656 3 4 tcp 1040 ------- 1 3.1 4.0 2 32
- 0.493656 3 4 tcp 1040 ------- 1 3.1 4.0 2 32
+ 0.493845 4 5 tcp 1040 ------- 1 4.1 5.0 4 33
- 0.493845 4 5 tcp 1040 ------- 1 4.1 5.0 4 33
+ 0.498373 2 3 tcp 1040 ------- 1 2.1 3.0 3 34
- 0.498373 2 3 tcp 1040 ------- 1 2.1 3.0 3 34
r 0.498405 0 5 ack 40 ------- 1 0.1 5.1 4 29
r 0.49909 5 4 ack 40 ------- 1 5.0 4.1 3 30
r 0.501003 3 2 ack 40 ------- 1 3.0 2.1 2 31
r 0.503739 3 4 tcp 1040 ------- 1 3.1 4.0 2 32
+ 0.503739 4 3 ack 40 ------- 1 4.0 3.1 2 35
- 0.503739 4 3 ack 40 ------- 1 4.0 3.1 2 35
r 0.503929 4 5 tcp 1040 ------- 1 4.1 5.0 4 33
+ 0.503929 5 4 ack 40 ------- 1 5.0 4.1 4 36
- 0.503929 5 4 ack 40 ------- 1 5.0 4.1 4 36
r 0.508456 2 3 tcp 1040 ------- 1 2.1 3.0 3 34
+ 0.508456 3 2 ack 40 ------- 1 3.0 2.1 3 37
- 0.508456 3 2 ack 40 ------- 1 3.0 2.1 3 37
r 0.513743 4 3 ack 40 ------- 1 4.0 3.1 2 35
r 0.513932 5 4 ack 40 ------- 1 5.0 4.1 4 36
+ 0.514495 2 3 tcp 1040 ------- 1 2.1 3.0 4 38
- 0.514495 2 3 tcp 1040 ------- 1 2.1 3.0 4 38
+ 0.515091 5 0 tcp 1040 ------- 1 5.1 0.1 5 39
- 0.515091 5 0 tcp 1040 ------- 1 5.1 0.1 5 39
+ 0.515134 1 2 tcp 40 ------- 1 1.1 2.0 0 40
- 0.515134 1 2 tcp 40 ------- 1 1.1 2.0 0 40
+ 0.516146 0 1 tcp 1040 ------- 1 0.0 1.0 2 41
- 0.516146 0 1 tcp 1040 ------- 1 0.0 1.0 2 41
r 0.518459 3 2 ack 40 ------- 1 3.0 2.1 3 37
r 0.524578 2 3 tcp 1040 ------- 1 2.1 3.0 4 38
+ 0.524578 3 2 ack 40 ------- 1 3.0 2.1 4 42
- 0.524578 3 2 ack 40 ------- 1 3.0 2.1 4 42
r 0.525138 1 2 tcp 40 ------- 1 1.1 2.0 0 40
+ 0.525138 2 1 ack 40 ------- 1 2.0 1.1 0 43
- 0.525138 2 1 ack 40 ------- 1 2.0 1.1 0 43
r 0.525174 5 0 tcp 1040 ------- 1 5.1 0.1 5 39
+ 0.525174 0 5 ack 40 ------- 1 0.1 5.1 5 44
- 0.525174 0 5 ack 40 ------- 1 0.1 5.1 5 44
r 0.526229 0 1 tcp 1040 ------- 1 0.0 1.0 2 41
+ 0.526229 1 0 ack 40 ------- 1 1.0 0.0 2 45
- 0.526229 1 0 ack 40 ------- 1 1.0 0.0 2 45
r 0.534581 3 2 ack 40 ------- 1 3.0 2.1 4 42
r 0.535141 2 1 ack 40 ------- 1 2.0 1.1 0 43
+ 0.535141 1 2 tcp 1040 ------- 1 1.1 2.0 1 46
- 0.535141 1 2 tcp 1040 ------- 1 1.1 2.0 1 46
+ 0.535141 1 2 tcp 1040 ------- 1 1.1 2.0 2 47
r 0.535177 0 5 ack 40 ------- 1 0.1 5.1 5 44
- 0.535224 1 2 tcp 1040 ------- 1 1.1 2.0 2 47
r 0.536232 1 0 ack 40 ------- 1 1.0 0.0 2 45
+ 0.542241 5 0 tcp 1040 ------- 1 5.1 0.1 6 48
- 0.542241 5 0 tcp 1040 ------- 1 5.1 0.1 6 48
r 0.545224 1 2 tcp 1040 ------- 1 1.1 2.0 1 46
+ 0.545224 2 1 ack 40 ------- 1 2.0 1.1 1 49
- 0.545224 2 1 ack 40 ------- 1 2.0 1.1 1 49
r 0.545307 1 2 tcp 1040 ------- 1 1.1 2.0 2 47
+ 0.545307 2 1 ack 40 ------- 1 2.0 1.1 2 50
- 0.545307 2 1 ack 40 ------- 1 2.0 1.1 2 50
r 0.552324 5 0 tcp 1040 ------- 1 5.1 0.1 6 48
+ 0.552324 0 5 ack 40 ------- 1 0.1 5.1 6 51
- 0.552324 0 5 ack 40 ------- 1 0.1 5.1 6 51
+ 0.553451 2 3 tcp 1040 ------- 1 2.1 3.0 5 52
- 0.553451 2 3 tcp 1040 ------- 1 2.1 3.0 5 52
r 0.555227 2 1 ack 40 ------- 1 2.0 1.1 1 49
r 0.55531 2 1 ack 40 ------- 1 2.0 1.1 2 50
r 0.562328 0 5 ack 40 ------- 1 0.1 5.1 6 51
r 0.563535 2 3 tcp 1040 ------- 1 2.1 3.0 5 52
+ 0.563535 3 2 ack 40 ------- 1 3.0 2.1 5 53
- 0.563535 3 2 ack 40 ------- 1 3.0 2.1 5 53
r 0.573538 3 2 ack 40 ------- 1 3.0 2.1 5 53
+ 0.606404 0 1 tcp 1040 ------- 1 0.0 1.0 3 54
- 0.606404 0 1 tcp 1040 ------- 1 0.0 1.0 3 54
r 0.616488 0 1 tcp 1040 ------- 1 0.0 1.0 3 54
+ 0.616488 1 0 ack 40 ------- 1 1.0 0.0 3 55
- 0.616488 1 0 ack 40 ------- 1 1.0 0.0 3 55
+ 0.618346 0 1 tcp 1040 ------- 1 0.0 1.0 4 56
- 0.618346 0 1 tcp 1040 ------- 1 0.0 1.0 4 56
+ 0.623869 0 1 tcp 1040 ------- 1 0.0 1.0 5 57
- 0.623869 0 1 tcp 1040 ------- 1 0.0 1.0 5 57
r 0.626491 1 0 ack 40 ------- 1 1.0 0.0 3 55
r 0.628429 0 1 tcp 1040 ------- 1 0.0 1.0 4 56
+ 0.628429 1 0 ack 40 ------- 1 1.0 0.0 4 58
- 0.628429 1 0 ack 40 ------- 1 1.0 0.0 4 58
+ 0.632824 5 0 tcp 1040 ------- 1 5.1 0.1 7 59
- 0.632824 5 0 tcp 1040 ------- 1 5.1 0.1 7 59
r 0.633952 0 1 tcp 1040 ------- 1 0.0 1.0 5 57
+ 0.633952 1 0 ack 40 ------- 1 1.0 0.0 5 60
- 0.633952 1 0 ack 40 ------- 1 1.0 0.0 5 60
+ 0.635371 0 1 tcp 1040 ------- 1 0.0 1.0 6 61
- 0.635371 0 1 tcp 1040 ------- 1 0.0 1.0 6 61
+ 0.636048 4 5 tcp 1040 ------- 1 4.1 5.0 5 62
- 0.636048 4 5 tcp 1040 ------- 1 4.1 5.0 5 62
r 0.638432 1 0 ack 40 ------- 1 1.0 0.0 4 58
r 0.642907 5 0 tcp 1040 ------- 1 5.1 0.1 7 59
+ 0.642907 0 5 ack 40 ------- 1 0.1 5.1 7 63
- 0.642907 0 5 ack 40 ------- 1 0.1 5.1 7 63
r 0.643955 1 0 ack 40 ------- 1 1.0 0.0 5 60
r 0.645454 0 1 tcp 1040 ------- 1 0.0 1.0 6 61
+ 0.645454 1 0 ack 40 ------- 1 1.0 0.0 6 64
- 0.645454 1 0 ack 40 ------- 1 1.0 0.0 6 64
r 0.646131 4 5 tcp 1040 ------- 1 4.1 5.0 5 62
+ 0.646131 5 4 ack 40 ------- 1 5.0 4.1 5 65
- 0.646131 5 4 ack 40 ------- 1 5.0 4.1 5 65
+ 0.646368 3 4 tcp 1040 ------- 1 3.1 4.0 3 66
- 0.646368 3 4 tcp 1040 ------- 1 3.1 4.0 3 66
r 0.65291 0 5 ack 40 ------- 1 0.1 5.1 7 63
r 0.655457 1 0 ack 40 ------- 1 1.0 0.0 6 64
r 0.656134 5 4 ack 40 ------- 1 5.0 4.1 5 65
r 0.656452 3 4 tcp 1040 ------- 1 3.1 4.0 3 66
+ 0.656452 4 3 ack 40 ------- 1 4.0 3.1 3 67
- 0.656452 4 3 ack 40 ------- 1 4.0 3.1 3 67
r 0.666455 4 3 ack 40 ------- 1 4.0 3.1 3 67
+ 0.698283 3 4 tcp 1040 ------- 1 3.1 4.0 4 68
- 0.698283 3 4 tcp 1040 ------- 1 3.1 4.0 4 68
r 0.708366 3 4 tcp 1040 ------- 1 3.1 4.0 4 68
+ 0.708366 4 3 ack 40 ------- 1 4.0 3.1 4 69
- 0.708366 4 3 ack 40 ------- 1 4.0 3.1 4 69
r 0.71837 4 3 ack 40 ------- 1 4.0 3.1 4 69
+ 0.720921 2 3 tcp 1040 ------- 1 2.1 3.0 6 70
- 0.720921 2 3 tcp 1040 ------- 1 2.1 3.0 6 70
r 0.731004 2 3 tcp 1040 ------- 1 2.1 3.0 6 70
+ 0.731004 3 2 ack 40 ------- 1 3.0 2.1 6 71
- 0.731004 3 2 ack 40 ------- 1 3.0 2.1 6 71
r 0.741007 3 2 ack 40 ------- 1 3.0 2.1 6 71
+ 0.746581 1 2 tcp 1040 ------- 1 1.1 2.0 3 72
- 0.746581 1 2 tcp 1040 ------- 1 1.1 2.0 3 72
r 0.756665 1 2 tcp 1040 ------- 1 1.1 2.0 3 72
+ 0.756665 2 1 ack 40 ------- 1 2.0 1.1 3 73
- 0.756665 2 1 ack 40 ------- 1 2.0 1.1 3 73
r 0.766668 2 1 ack 40 ------- 1 2.0 1.1 3 73
+ 0.786835 1 2 tcp 1040 ------- 1 1.1 2.0 4 74
- 0.786835 1 2 tcp 1040 ------- 1 1.1 2.0 4 74
r 0.796918 1 2 tcp 1040 ------- 1 1.1 2.0 4 74
+ 0.796918 2 1 ack 40 ------- 1 2.0 1.1 4 75
- 0.796918 2 1 ack 40 ------- 1 2.0 1.1 4 75
r 0.806921 2 1 ack 40 ------- 1 2.0 1.1 4 75
+ 0.807448 3 4 tcp 1040 ------- 1 3.1 4.0 5 76
- 0.807448 3 4 tcp 1040 ------- 1 3.1 4.0 5 76
r 0.817531 3 4 tcp 1040 ------- 1 3.1 4.0 5 76
+ 0.817531 4 3 ack 40 ------- 1 4.0 3.1 5 77
- 0.817531 4 3 ack 40 ------- 1 4.0 3.1 5 77
r 0.827534 4 3 ack 40 ------- 1 4.0 3.1 5 77
+ 0.843305 3 4 tcp 1040 ------- 1 3.1 4.0 6 78
- 0.843305 3 4 tcp 1040 ------- 1 3.1 4.0 6 78
+ 0.851722 5 0 tcp 1040 ------- 1 5.1 0.1 8 79
- 0.851722 5 0 tcp 1040 ------- 1 5.1 0.1 8 79
r 0.853388 3 4 tcp 1040 ------- 1 3.1 4.0 6 78
+ 0.853388 4 3 ack 40 ------- 1 4.0 3.1 6 80
- 0.853388 4 3 ack 40 ------- 1 4.0 3.1 6 80
r 0.861805 5 0 tcp 1040 ------- 1 5.1 0.1 8 79
+ 0.861805 0 5 ack 40 ------- 1 0.1 5.1 8 81
- 0.861805 0 5 ack 40 ------- 1 0.1 5.1 8 81
r 0.863392 4 3 ack 40 ------- 1 4.0 3.1 6 80
+ 0.864886 5 0 tcp 1040 ------- 1 5.1 0.1 9 82
- 0.864886 5 0 tcp 1040 ------- 1 5.1 0.1 9 82
r 0.871808 0 5 ack 40 ------- 1 0.1 5.1 8 81
r 0.874969 5 0 tcp 1040 ------- 1 5.1 0.1 9 82
+ 0.874969 0 5 ack 40 ------- 1 0.1 5.1 9 83
- 0.874969 0 5 ack 40 ------- 1 0.1 5.1 9 83
r 0.884972 0 5 ack 40 ------- 1 0.1 5.1 9 83
+ 0.904035 3 4 tcp 1040 ------- 1 3.1 4.0 7 84
- 0.904035 3 4 tcp 1040 ------- 1 3.1 4.0 7 84
r 0.914118 3 4 tcp 1040 ------- 1 3.1 4.0 7 84
+ 0.914118 4 3 ack 40 ------- 1 4.0 3.1 7 85
- 0.914118 4 3 ack 40 ------- 1 4.0 3.1 7 85
+ 0.91941 0 1 tcp 1040 ---A--- 1 0.0 1.0 7 86
- 0.91941 0 1 tcp 1040 ---A--- 1 0.0 1.0 7 86
+ 0.922705 1 2 tcp 1040 ------- 1 1.1 2.0 5 87
- 0.922705 1 2 tcp 1040 ------- 1 1.1 2.0 5 87
r 0.924121 4 3 ack 40 ------- 1 4.0 3.1 7 85
r 0.929493 0 1 tcp 1040 ---A--- 1 0.0 1.0 7 86
+ 0.929493 1 0 ack 40 ------- 1 1.0 0.0 7 88
- 0.929493 1 0 ack 40 ------- 1 1.0 0.0 7 88
+ 0.930394 2 3 tcp 1040 ------- 1 2.1 3.0 7 89
- 0.930394 2 3 tcp 1040 ------- 1 2.1 3.0 7 89
r 0.932788 1 2 tcp 1040 ------- 1 1.1 2.0 5 87
+ 0.932788 2 1 ack 40 ------- 1 2.0 1.1 5 90
- 0.932788 2 1 ack 40 ------- 1 2.0 1.1 5 90
r 0.939497 1 0 ack 40 ------- 1 1.0 0.0 7 88
r 0.940477 2 3 tcp 1040 ------- 1 2.1 3.0 7 89
+ 0.940477 3 2 ack 40 ------- 1 3.0 2.1 7 91
- 0.940477 3 2 ack 40 ------- 1 3.0 2.1 7 91
r 0.942791 2 1 ack 40 ------- 1 2.0 1.1 5 90
r 0.95048 3 2 ack 40 ------- 1 3.0 2.1 7 91
+ 0.962943 3 4 tcp 1040 ------- 1 3.1 4.0 8 92
- 0.962943 3 4 tcp 1040 ------- 1 3.1 4.0 8 92
r 0.973026 3 4 tcp 1040 ------- 1 3.1 4.0 8 92
+ 0.973026 4 3 ack 40 ------- 1 4.0 3.1 8 93
- 0.973026 4 3 ack 40 ------- 1 4.0 3.1 8 93
r 0.983029 4 3 ack 40 ------- 1 4.0 3.1 8 93
+ 0.998894 5 0 tcp 1040 ------- 1 5.1 0.1 10 94
- 0.998894 5 0 tcp 1040 ------- 1 5.1 0.1 10 94
+ 1.004815 0 1 tcp 1040 ------- 1 0.0 1.0 8 95
- 1.004815 0 1 tcp 1040 ------- 1 0.0 1.0 8 95
r 1.008977 5 0 tcp 1040 ------- 1 5.1 0.1 10 94
+ 1.008977 0 5 ack 40 ------- 1 0.1 5.1 10 96
- 1.008977 0 5 ack 40 ------- 1 0.1 5.1 10 96
+ 1.01028 0 1 tcp 1040 ------- 1 0.0 1.0 9 97
- 1.01028 0 1 tcp 1040 ------- 1 0.0 1.0 9 97
r 1.014899 0 1 tcp 1040 ------- 1 0.0 1.0 8 95
+ 1.014899 1 0 ack 40 ------- 1 1.0 0.0 8 98
- 1.014899 1 0 ack 40 ------- 1 1.0 0.0 8 98
r 1.01898 0 5 ack 40 ------- 1 0.1 5.1 10 96
r 1.020364 0 1 tcp 1040 ------- 1 0.0 1.0 9 97
+ 1.020364 1 0 ack 40 ------- 1 1.0 0.0 9 99
- 1.020364 1 0 ack 40 ------- 1 1.0 0.0 9 99
+ 1.023103 5 0 tcp 1040 ------- 1 5.1 0.1 11 100
- 1.023103 5 0 tcp 1040 ------- 1 5.1 0.1 11 100
r 1.024902 1 0 ack 40 ------- 1 1.0 0.0 8 98
r 1.030367 1 0 ack 40 ------- 1 1.0 0.0 9 99
r 1.033186 5 0 tcp 1040 ------- 1 5.1 0.1 11 100
+ 1.033186 0 5 ack 40 ------- 1 0.1 5.1 11 101
- 1.033186 0 5 ack 40 ------- 1 0.1 5.1 11 101
+ 1.036067 0 1 tcp 1040 ------- 1 0.0 1.0 10 102
- 1.036067 0 1 tcp 1040 ------- 1 0.0 1.0 10 102
+ 1.042077 2 3 tcp 1040 ------- 1 2.1 3.0 8 103
- 1.042077 2 3 tcp 1040 ------- 1 2.1 3.0 8 103
r 1.043189 0 5 ack 40 ------- 1 0.1 5.1 11 101
r 1.046151 0 1 tcp 1040 ------- 1 0.0 1.0 10 102
+ 1.046151 1 0 ack 40 ------- 1 1.0 0.0 10 104
- 1.046151 1 0 ack 40 ------- 1 1.0 0.0 10 104
r 1.05216 2 3 tcp 1040 ------- 1 2.1 3.0 8 103
+ 1.05216 3 2 ack 40 ------- 1 3.0 2.1 8 105
- 1.05216 3 2 ack 40 ------- 1 3.0 2.1 8 105
r 1.056154 1 0 ack 40 ------- 1 1.0 0.0 10 104
r 1.062163 3 2 ack 40 ------- 1 3.0 2.1 8 105
+ 1.072461 0 1 tcp 1040 ------- 1 0.0 1.0 11 106
- 1.072461 0 1 tcp 1040 ------- 1 0.0 1.0 11 106
+ 1.074889 0 1 tcp 1040 ------- 1 0.0 1.0 12 107
- 1.074889 0 1 tcp 1040 ------- 1 0.0 1.0 12 107
r 1.082544 0 1 tcp 1040 ------- 1 0.0 1.0 11 106
+ 1.082544 1 0 ack 40 ------- 1 1.0 0.0 11 108
- 1.082544 1 0 ack 40 ------- 1 1.0 0.0 11 108
r 1.084972 0 1 tcp 1040 ------- 1 0.0 1.0 12 107
+ 1.084972 1 0 ack 40 ------- 1 1.0 0.0 12 109
- 1.084972 1 0 ack 40 ------- 1 1.0 0.0 12 109
+ 1.088791 4 5 tcp 1040 ---A--- 1 4.1 5.0 6 110
- 1.088791 4 5 tcp 1040 ---A--- 1 4.1 5.0 6 110
r 1.092547 1 0 ack 40 ------- 1 1.0 0.0 11 108
r 1.094976 1 0 ack 40 ------- 1 1.0 0.0 12 109
r 1.098875 4 5 tcp 1040 ---A--- 1 4.1 5.0 6 110
+ 1.098875 5 4 ack 40 ------- 1 5.0 4.1 6 111
- 1.098875 5 4 ack 40 ------- 1 5.0 4.1 6 111
r 1.108878 5 4 ack 40 ------- 1 5.0 4.1 6 111
+ 1.131028 3 4 tcp 1040 ------- 1 3.1 4.0 9 112
- 1.131028 3 4 tcp 1040 ------- 1 3.1 4.0 9 112
r 1.141111 3 4 tcp 1040 ------- 1 3.1 4.0 9 112
+ 1.141111 4 3 ack 40 ------- 1 4.0 3.1 9 113
- 1.141111 4 3 ack 40 ------- 1 4.0 3.1 9 113
r 1.151115 4 3 ack 40 ------- 1 4.0 3.1 9 113
+ 1.159776 4 5 tcp 1040 ------- 1 4.1 5.0 7 114
- 1.159776 4 5 tcp 1040 ------- 1 4.1 5.0 7 114
r 1.169859 4 5 tcp 1040 ------- 1 4.1 5.0 7 114
+ 1.169859 5 4 ack 40 ------- 1 5.0 4.1 7 115
- 1.169859 5 4 ack 40 ------- 1 5.0 4.1 7 115
+ 1.174266 4 5 tcp 1040 ------- 1 4.1 5.0 8 116
- 1.174266 4 5 tcp 1040 ------- 1 4.1 5.0 8 116
r 1.179862 5 4 ack 40 ------- 1 5.0 4.1 7 115
+ 1.180735 5 0 tcp 1040 ------- 1 5.1 0.1 12 117
- 1.180735 5 0 tcp 1040 ------- 1 5.1 0.1 12 117
r 1.184349 4 5 tcp 1040 ------- 1 4.1 5.0 8 116
+ 1.184349 5 4 ack 40 ------- 1 5.0 4.1 8 118
- 1.184349 5 4 ack 40 ------- 1 5.0 4.1 8 118
r 1.190818 5 0 tcp 1040 ------- 1 5.1 0.1 12 117
+ 1.190818 0 5 ack 40 ------- 1 0.1 5.1 12 119
- 1.190818 0 5 ack 40 ------- 1 0.1 5.1 12 119
r 1.194352 5 4 ack 40 ------- 1 5.0 4.1 8 118
r 1.200821 0 5 ack 40 ------- 1 0.1 5.1 12 119
