+ 0.2 0 1 tcp 40 ------- 1 0.0 1.0 0 0
- 0.2 0 1 tcp 40 ------- 1 0.0 1.0 0 0
+ 0.2 0 2 tcp 40 ------- 1 0.1 2.0 0 1
- 0.2 0 2 tcp 40 ------- 1 0.1 2.0 0 1
+ 0.2 0 3 tcp 40 ------- 1 0.2 3.0 0 2
- 0.2 0 3 tcp 40 ------- 1 0.2 3.0 0 2
+ 0.2 0 4 tcp 40 ------- 1 0.3 4.0 0 3
- 0.2 0 4 tcp 40 ------- 1 0.3 4.0 0 3
+ 0.2 1 2 tcp 40 ------- 1 1.1 2.1 0 4
- 0.2 1 2 tcp 40 ------- 1 1.1 2.1 0 4
+ 0.2 1 3 tcp 40 ------- 1 1.2 3.1 0 5
- 0.2 1 3 tcp 40 ------- 1 1.2 3.1 0 5
+ 0.2 1 4 tcp 40 ------- 1 1.3 4.1 0 6
- 0.2 1 4 tcp 40 ------- 1 1.3 4.1 0 6
+ 0.2 2 3 tcp 40 ------- 1 2.2 3.2 0 7
- 0.2 2 3 tcp 40 ------- 1 2.2 3.2 0 7
+ 0.2 2 4 tcp 40 ------- 1 2.3 4.2 0 8
- 0.2 2 4 tcp 40 ------- 1 2.3 4.2 0 8
+ 0.2 3 4 tcp 40 ------- 1 3.3 4.3 0 9
- 0.2 3 4 tcp 40 ------- 1 3.3 4.3 0 9
r 0.210002 0 1 tcp 40 ------- 1 0.0 1.0 0 0
+ 0.210002 1 0 ack 40 ------- 1 1.0 0.0 0 10
- 0.210002 1 0 ack 40 ------- 1 1.0 0.0 0 10
r 0.210002 0 2 tcp 40 ------- 1 0.1 2.0 0 1
+ 0.210002 2 0 ack 40 ------- 1 2.0 0.1 0 11
- 0.210002 2 0 ack 40 ------- 1 2.0 0.1 0 11
r 0.210002 0 3 tcp 40 ------- 1 0.2 3.0 0 2
+ 0.210002 3 0 ack 40 ------- 1 3.0 0.2 0 12
- 0.210002 3 0 ack 40 ------- 1 3.0 0.2 0 12
r 0.210002 0 4 tcp 40 ------- 1 0.3 4.0 0 3
+ 0.210002 4 0 ack 40 ------- 1 4.0 0.3 0 13
- 0.210002 4 0 ack 40 ------- 1 4.0 0.3 0 13
r 0.210002 1 2 tcp 40 ------- 1 1.1 2.1 0 4
+ 0.210002 2 1 ack 40 ------- 1 2.1 1.1 0 14
- 0.210002 2 1 ack 40 ------- 1 2.1 1.1 0 14
r 0.210002 1 3 tcp 40 ------- 1 1.2 3.1 0 5
+ 0.210002 3 1 ack 40 ------- 1 3.1 1.2 0 15
- 0.210002 3 1 ack 40 ------- 1 3.1 1.2 0 15
r 0.210002 1 4 tcp 40 ------- 1 1.3 4.1 0 6
+ 0.210002 4 1 ack 40 ------- 1 4.1 1.3 0 16
- 0.210002 4 1 ack 40 ------- 1 4.1 1.3 0 16
r 0.210002 2 3 tcp 40 ------- 1 2.2 3.2 0 7
+ 0.210002 3 2 ack 40 ------- 1 3.2 2.2 0 17
- 0.210002 3 2 ack 40 ------- 1 3.2 2.2 0 17
r 0.210002 2 4 tcp 40 ------- 1 2.3 4.2 0 8
+ 0.210002 4 2 ack 40 ------- 1 4.2 2.3 0 18
- 0.210002 4 2 ack 40 ------- 1 4.2 2.3 0 18
r 0.210002 3 4 tcp 40 ------- 1 3.3 4.3 0 9
+ 0.210002 4 3 ack 40 ------- 1 4.3 3.3 0 19
- 0.210002 4 3 ack 40 ------- 1 4.3 3.3 0 19
r 0.220003 1 0 ack 40 ------- 1 1.0 0.0 0 10
+ 0.220003 0 1 tcp 1040 ------- 1 0.0 1.0 1 20
- 0.220003 0 1 tcp 1040 ------- 1 0.0 1.0 1 20
+ 0.220003 0 1 tcp 1040 ------- 1 0.0 1.0 2 21
r 0.220003 2 0 ack 40 ------- 1 2.0 0.1 0 11
+ 0.220003 0 2 tcp 1040 ------- 1 0.1 2.0 1 22
- 0.220003 0 2 tcp 1040 ------- 1 0.1 2.0 1 22
+ 0.220003 0 2 tcp 1040 ------- 1 0.1 2.0 2 23
r 0.220003 3 0 ack 40 ------- 1 3.0 0.2 0 12
+ 0.220003 0 3 tcp 1040 ------- 1 0.2 3.0 1 24
- 0.220003 0 3 tcp 1040 ------- 1 0.2 3.0 1 24
+ 0.220003 0 3 tcp 1040 ------- 1 0.2 3.0 2 25
r 0.220003 4 0 ack 40 ------- 1 4.0 0.3 0 13
+ 0.220003 0 4 tcp 1040 ------- 1 0.3 4.0 1 26
- 0.220003 0 4 tcp 1040 ------- 1 0.3 4.0 1 26
+ 0.220003 0 4 tcp 1040 ------- 1 0.3 4.0 2 27
r 0.220003 2 1 ack 40 ------- 1 2.1 1.1 0 14
+ 0.220003 1 2 tcp 1040 ------- 1 1.1 2.1 1 28
- 0.220003 1 2 tcp 1040 ------- 1 1.1 2.1 1 28
+ 0.220003 1 2 tcp 1040 ------- 1 1.1 2.1 2 29
r 0.220003 3 1 ack 40 ------- 1 3.1 1.2 0 15
+ 0.220003 1 3 tcp 1040 ------- 1 1.2 3.1 1 30
- 0.220003 1 3 tcp 1040 ------- 1 1.2 3.1 1 30
+ 0.220003 1 3 tcp 1040 ------- 1 1.2 3.1 2 31
r 0.220003 4 1 ack 40 ------- 1 4.1 1.3 0 16
+ 0.220003 1 4 tcp 1040 ------- 1 1.3 4.1 1 32
- 0.220003 1 4 tcp 1040 ------- 1 1.3 4.1 1 32
+ 0.220003 1 4 tcp 1040 ------- 1 1.3 4.1 2 33
r 0.220003 3 2 ack 40 ------- 1 3.2 2.2 0 17
+ 0.220003 2 3 tcp 1040 ------- 1 2.2 3.2 1 34
- 0.220003 2 3 tcp 1040 ------- 1 2.2 3.2 1 34
+ 0.220003 2 3 tcp 1040 ------- 1 2.2 3.2 2 35
r 0.220003 4 2 ack 40 ------- 1 4.2 2.3 0 18
+ 0.220003 2 4 tcp 1040 ------- 1 2.3 4.2 1 36
- 0.220003 2 4 tcp 1040 ------- 1 2.3 4.2 1 36
+ 0.220003 2 4 tcp 1040 ------- 1 2.3 4.2 2 37
r 0.220003 4 3 ack 40 ------- 1 4.3 3.3 0 19
+ 0.220003 3 4 tcp 1040 ------- 1 3.3 4.3 1 38
- 0.220003 3 4 tcp 1040 ------- 1 3.3 4.3 1 38
+ 0.220003 3 4 tcp 1040 ------- 1 3.3 4.3 2 39
- 0.220045 0 1 tcp 1040 ------- 1 0.0 1.0 2 21
- 0.220045 0 2 tcp 1040 ------- 1 0.1 2.0 2 23
- 0.220045 0 3 tcp 1040 ------- 1 0.2 3.0 2 25
- 0.220045 0 4 tcp 1040 ------- 1 0.3 4.0 2 27
- 0.220045 1 2 tcp 1040 ------- 1 1.1 2.1 2 29
- 0.220045 1 3 tcp 1040 ------- 1 1.2 3.1 2 31
- 0.220045 1 4 tcp 1040 ------- 1 1.3 4.1 2 33
- 0.220045 2 3 tcp 1040 ------- 1 2.2 3.2 2 35
- 0.220045 2 4 tcp 1040 ------- 1 2.3 4.2 2 37
- 0.220045 3 4 tcp 1040 ------- 1 3.3 4.3 2 39
r 0.230045 0 1 tcp 1040 ------- 1 0.0 1.0 1 20
+ 0.230045 1 0 ack 40 ------- 1 1.0 0.0 1 40
- 0.230045 1 0 ack 40 ------- 1 1.0 0.0 1 40
r 0.230045 0 2 tcp 1040 ------- 1 0.1 2.0 1 22
+ 0.230045 2 0 ack 40 ------- 1 2.0 0.1 1 41
- 0.230045 2 0 ack 40 ------- 1 2.0 0.1 1 41
r 0.230045 0 3 tcp 1040 ------- 1 0.2 3.0 1 24
+ 0.230045 3 0 ack 40 ------- 1 3.0 0.2 1 42
- 0.230045 3 0 ack 40 ------- 1 3.0 0.2 1 42
r 0.230045 0 4 tcp 1040 ------- 1 0.3 4.0 1 26
+ 0.230045 4 0 ack 40 ------- 1 4.0 0.3 1 43
- 0.230045 4 0 ack 40 ------- 1 4.0 0.3 1 43
r 0.230045 1 2 tcp 1040 ------- 1 1.1 2.1 1 28
+ 0.230045 2 1 ack 40 ------- 1 2.1 1.1 1 44
- 0.230045 2 1 ack 40 ------- 1 2.1 1.1 1 44
r 0.230045 1 3 tcp 1040 ------- 1 1.2 3.1 1 30
+ 0.230045 3 1 ack 40 ------- 1 3.1 1.2 1 45
- 0.230045 3 1 ack 40 ------- 1 3.1 1.2 1 45
r 0.230045 1 4 tcp 1040 ------- 1 1.3 4.1 1 32
+ 0.230045 4 1 ack 40 ------- 1 4.1 1.3 1 46
- 0.230045 4 1 ack 40 ------- 1 4.1 1.3 1 46
r 0.230045 2 3 tcp 1040 ------- 1 2.2 3.2 1 34
+ 0.230045 3 2 ack 40 ------- 1 3.2 2.2 1 47
- 0.230045 3 2 ack 40 ------- 1 3.2 2.2 1 47
r 0.230045 2 4 tcp 1040 ------- 1 2.3 4.2 1 36
+ 0.230045 4 2 ack 40 ------- 1 4.2 2.3 1 48
- 0.230045 4 2 ack 40 ------- 1 4.2 2.3 1 48
r 0.230045 3 4 tcp 1040 ------- 1 3.3 4.3 1 38
+ 0.230045 4 3 ack 40 ------- 1 4.3 3.3 1 49
- 0.230045 4 3 ack 40 ------- 1 4.3 3.3 1 49
r 0.230086 0 1 tcp 1040 ------- 1 0.0 1.0 2 21
+ 0.230086 1 0 ack 40 ------- 1 1.0 0.0 2 50
- 0.230086 1 0 ack 40 ------- 1 1.0 0.0 2 50
r 0.230086 0 2 tcp 1040 ------- 1 0.1 2.0 2 23
+ 0.230086 2 0 ack 40 ------- 1 2.0 0.1 2 51
- 0.230086 2 0 ack 40 ------- 1 2.0 0.1 2 51
r 0.230086 0 3 tcp 1040 ------- 1 0.2 3.0 2 25
+ 0.230086 3 0 ack 40 ------- 1 3.0 0.2 2 52
- 0.230086 3 0 ack 40 ------- 1 3.0 0.2 2 52
r 0.230086 0 4 tcp 1040 ------- 1 0.3 4.0 2 27
+ 0.230086 4 0 ack 40 ------- 1 4.0 0.3 2 53
- 0.230086 4 0 ack 40 ------- 1 4.0 0.3 2 53
r 0.230086 1 2 tcp 1040 ------- 1 1.1 2.1 2 29
+ 0.230086 2 1 ack 40 ------- 1 2.1 1.1 2 54
- 0.230086 2 1 ack 40 ------- 1 2.1 1.1 2 54
r 0.230086 1 3 tcp 1040 ------- 1 1.2 3.1 2 31
+ 0.230086 3 1 ack 40 ------- 1 3.1 1.2 2 55
- 0.230086 3 1 ack 40 ------- 1 3.1 1.2 2 55
r 0.230086 1 4 tcp 1040 ------- 1 1.3 4.1 2 33
+ 0.230086 4 1 ack 40 ------- 1 4.1 1.3 2 56
- 0.230086 4 1 ack 40 ------- 1 4.1 1.3 2 56
r 0.230086 2 3 tcp 1040 ------- 1 2.2 3.2 2 35
+ 0.230086 3 2 ack 40 ------- 1 3.2 2.2 2 57
- 0.230086 3 2 ack 40 ------- 1 3.2 2.2 2 57
r 0.230086 2 4 tcp 1040 ------- 1 2.3 4.2 2 37
+ 0.230086 4 2 ack 40 ------- 1 4.2 2.3 2 58
- 0.230086 4 2 ack 40 ------- 1 4.2 2.3 2 58
r 0.230086 3 4 tcp 1040 ------- 1 3.3 4.3 2 39
+ 0.230086 4 3 ack 40 ------- 1 4.3 3.3 2 59
- 0.230086 4 3 ack 40 ------- 1 4.3 3.3 2 59
r 0.240046 1 0 ack 40 ------- 1 1.0 0.0 1 40
+ 0.240046 0 1 tcp 1040 ------- 1 0.0 1.0 3 60
- 0.240046 0 1 tcp 1040 ------- 1 0.0 1.0 3 60
+ 0.240046 0 1 tcp 1040 ------- 1 0.0 1.0 4 61
r 0.240046 2 0 ack 40 ------- 1 2.0 0.1 1 41
+ 0.240046 0 2 tcp 1040 ------- 1 0.1 2.0 3 62
- 0.240046 0 2 tcp 1040 ------- 1 0.1 2.0 3 62
+ 0.240046 0 2 tcp 1040 ------- 1 0.1 2.0 4 63
r 0.240046 3 0 ack 40 ------- 1 3.0 0.2 1 42
+ 0.240046 0 3 tcp 1040 ------- 1 0.2 3.0 3 64
- 0.240046 0 3 tcp 1040 ------- 1 0.2 3.0 3 64
+ 0.240046 0 3 tcp 1040 ------- 1 0.2 3.0 4 65
r 0.240046 4 0 ack 40 ------- 1 4.0 0.3 1 43
+ 0.240046 0 4 tcp 1040 ------- 1 0.3 4.0 3 66
- 0.240046 0 4 tcp 1040 ------- 1 0.3 4.0 3 66
+ 0.240046 0 4 tcp 1040 ------- 1 0.3 4.0 4 67
r 0.240046 2 1 ack 40 ------- 1 2.1 1.1 1 44
+ 0.240046 1 2 tcp 1040 ------- 1 1.1 2.1 3 68
- 0.240046 1 2 tcp 1040 ------- 1 1.1 2.1 3 68
+ 0.240046 1 2 tcp 1040 ------- 1 1.1 2.1 4 69
r 0.240046 3 1 ack 40 ------- 1 3.1 1.2 1 45
+ 0.240046 1 3 tcp 1040 ------- 1 1.2 3.1 3 70
- 0.240046 1 3 tcp 1040 ------- 1 1.2 3.1 3 70
+ 0.240046 1 3 tcp 1040 ------- 1 1.2 3.1 4 71
r 0.240046 4 1 ack 40 ------- 1 4.1 1.3 1 46
+ 0.240046 1 4 tcp 1040 ------- 1 1.3 4.1 3 72
- 0.240046 1 4 tcp 1040 ------- 1 1.3 4.1 3 72
+ 0.240046 1 4 tcp 1040 ------- 1 1.3 4.1 4 73
r 0.240046 3 2 ack 40 ------- 1 3.2 2.2 1 47
+ 0.240046 2 3 tcp 1040 ------- 1 2.2 3.2 3 74
- 0.240046 2 3 tcp 1040 ------- 1 2.2 3.2 3 74
+ 0.240046 2 3 tcp 1040 ------- 1 2.2 3.2 4 75
r 0.240046 4 2 ack 40 ------- 1 4.2 2.3 1 48
+ 0.240046 2 4 tcp 1040 ------- 1 2.3 4.2 3 76
- 0.240046 2 4 tcp 1040 ------- 1 2.3 4.2 3 76
+ 0.240046 2 4 tcp 1040 ------- 1 2.3 4.2 4 77
r 0.240046 4 3 ack 40 ------- 1 4.3 3.3 1 49
+ 0.240046 3 4 tcp 1040 ------- 1 3.3 4.3 3 78
- 0.240046 3 4 tcp 1040 ------- 1 3.3 4.3 3 78
+ 0.240046 3 4 tcp 1040 ------- 1 3.3 4.3 4 79
r 0.240088 1 0 ack 40 ------- 1 1.0 0.0 2 50
+ 0.240088 0 1 tcp 1040 ------- 1 0.0 1.0 5 80
+ 0.240088 0 1 tcp 1040 ------- 1 0.0 1.0 6 81
r 0.240088 2 0 ack 40 ------- 1 2.0 0.1 2 51
+ 0.240088 0 2 tcp 1040 ------- 1 0.1 2.0 5 82
+ 0.240088 0 2 tcp 1040 ------- 1 0.1 2.0 6 83
r 0.240088 3 0 ack 40 ------- 1 3.0 0.2 2 52
+ 0.240088 0 3 tcp 1040 ------- 1 0.2 3.0 5 84
+ 0.240088 0 3 tcp 1040 ------- 1 0.2 3.0 6 85
r 0.240088 4 0 ack 40 ------- 1 4.0 0.3 2 53
+ 0.240088 0 4 tcp 1040 ------- 1 0.3 4.0 5 86
+ 0.240088 0 4 tcp 1040 ------- 1 0.3 4.0 6 87
r 0.240088 2 1 ack 40 ------- 1 2.1 1.1 2 54
+ 0.240088 1 2 tcp 1040 ------- 1 1.1 2.1 5 88
+ 0.240088 1 2 tcp 1040 ------- 1 1.1 2.1 6 89
r 0.240088 3 1 ack 40 ------- 1 3.1 1.2 2 55
+ 0.240088 1 3 tcp 1040 ------- 1 1.2 3.1 5 90
+ 0.240088 1 3 tcp 1040 ------- 1 1.2 3.1 6 91
r 0.240088 4 1 ack 40 ------- 1 4.1 1.3 2 56
+ 0.240088 1 4 tcp 1040 ------- 1 1.3 4.1 5 92
+ 0.240088 1 4 tcp 1040 ------- 1 1.3 4.1 6 93
r 0.240088 3 2 ack 40 ------- 1 3.2 2.2 2 57
+ 0.240088 2 3 tcp 1040 ------- 1 2.2 3.2 5 94
+ 0.240088 2 3 tcp 1040 ------- 1 2.2 3.2 6 95
r 0.240088 4 2 ack 40 ------- 1 4.2 2.3 2 58
+ 0.240088 2 4 tcp 1040 ------- 1 2.3 4.2 5 96
+ 0.240088 2 4 tcp 1040 ------- 1 2.3 4.2 6 97
r 0.240088 4 3 ack 40 ------- 1 4.3 3.3 2 59
+ 0.240088 3 4 tcp 1040 ------- 1 3.3 4.3 5 98
+ 0.240088 3 4 tcp 1040 ------- 1 3.3 4.3 6 99
- 0.240088 0 1 tcp 1040 ------- 1 0.0 1.0 4 61
- 0.240088 0 2 tcp 1040 ------- 1 0.1 2.0 4 63
- 0.240088 0 3 tcp 1040 ------- 1 0.2 3.0 4 65
- 0.240088 0 4 tcp 1040 ------- 1 0.3 4.0 4 67
- 0.240088 1 2 tcp 1040 ------- 1 1.1 2.1 4 69
- 0.240088 1 3 tcp 1040 ------- 1 1.2 3.1 4 71
- 0.240088 1 4 tcp 1040 ------- 1 1.3 4.1 4 73
- 0.240088 2 3 tcp 1040 ------- 1 2.2 3.2 4 75
- 0.240088 2 4 tcp 1040 ------- 1 2.3 4.2 4 77
- 0.240088 3 4 tcp 1040 ------- 1 3.3 4.3 4 79
- 0.24013 0 1 tcp 1040 ------- 1 0.0 1.0 5 80
- 0.24013 0 2 tcp 1040 ------- 1 0.1 2.0 5 82
- 0.24013 0 3 tcp 1040 ------- 1 0.2 3.0 5 84
- 0.24013 0 4 tcp 1040 ------- 1 0.3 4.0 5 86
- 0.24013 1 2 tcp 1040 ------- 1 1.1 2.1 5 88
- 0.24013 1 3 tcp 1040 ------- 1 1.2 3.1 5 90
- 0.24013 1 4 tcp 1040 ------- 1 1.3 4.1 5 92
- 0.24013 2 3 tcp 1040 ------- 1 2.2 3.2 5 94
- 0.24013 2 4 tcp 1040 ------- 1 2.3 4.2 5 96
- 0.24013 3 4 tcp 1040 ------- 1 3.3 4.3 5 98
- 0.240171 0 1 tcp 1040 ------- 1 0.0 1.0 6 81
- 0.240171 0 2 tcp 1040 ------- 1 0.1 2.0 6 83
- 0.240171 0 3 tcp 1040 ------- 1 0.2 3.0 6 85
- 0.240171 0 4 tcp 1040 ------- 1 0.3 4.0 6 87
- 0.240171 1 2 tcp 1040 ------- 1 1.1 2.1 6 89
- 0.240171 1 3 tcp 1040 ------- 1 1.2 3.1 6 91
- 0.240171 1 4 tcp 1040 ------- 1 1.3 4.1 6 93
- 0.240171 2 3 tcp 1040 ------- 1 2.2 3.2 6 95
- 0.240171 2 4 tcp 1040 ------- 1 2.3 4.2 6 97
- 0.240171 3 4 tcp 1040 ------- 1 3.3 4.3 6 99
r 0.250088 0 1 tcp 1040 ------- 1 0.0 1.0 3 60
+ 0.250088 1 0 ack 40 ------- 1 1.0 0.0 3 100
- 0.250088 1 0 ack 40 ------- 1 1.0 0.0 3 100
r 0.250088 0 2 tcp 1040 ------- 1 0.1 2.0 3 62
+ 0.250088 2 0 ack 40 ------- 1 2.0 0.1 3 101
- 0.250088 2 0 ack 40 ------- 1 2.0 0.1 3 101
r 0.250088 0 3 tcp 1040 ------- 1 0.2 3.0 3 64
+ 0.250088 3 0 ack 40 ------- 1 3.0 0.2 3 102
- 0.250088 3 0 ack 40 ------- 1 3.0 0.2 3 102
r 0.250088 0 4 tcp 1040 ------- 1 0.3 4.0 3 66
+ 0.250088 4 0 ack 40 ------- 1 4.0 0.3 3 103
- 0.250088 4 0 ack 40 ------- 1 4.0 0.3 3 103
r 0.250088 1 2 tcp 1040 ------- 1 1.1 2.1 3 68
+ 0.250088 2 1 ack 40 ------- 1 2.1 1.1 3 104
- 0.250088 2 1 ack 40 ------- 1 2.1 1.1 3 104
r 0.250088 1 3 tcp 1040 ------- 1 1.2 3.1 3 70
+ 0.250088 3 1 ack 40 ------- 1 3.1 1.2 3 105
- 0.250088 3 1 ack 40 ------- 1 3.1 1.2 3 105
r 0.250088 1 4 tcp 1040 ------- 1 1.3 4.1 3 72
+ 0.250088 4 1 ack 40 ------- 1 4.1 1.3 3 106
- 0.250088 4 1 ack 40 ------- 1 4.1 1.3 3 106
r 0.250088 2 3 tcp 1040 ------- 1 2.2 3.2 3 74
+ 0.250088 3 2 ack 40 ------- 1 3.2 2.2 3 107
- 0.250088 3 2 ack 40 ------- 1 3.2 2.2 3 107
r 0.250088 2 4 tcp 1040 ------- 1 2.3 4.2 3 76
+ 0.250088 4 2 ack 40 ------- 1 4.2 2.3 3 108
- 0.250088 4 2 ack 40 ------- 1 4.2 2.3 3 108
r 0.250088 3 4 tcp 1040 ------- 1 3.3 4.3 3 78
+ 0.250088 4 3 ack 40 ------- 1 4.3 3.3 3 109
- 0.250088 4 3 ack 40 ------- 1 4.3 3.3 3 109
r 0.25013 0 1 tcp 1040 ------- 1 0.0 1.0 4 61
+ 0.25013 1 0 ack 40 ------- 1 1.0 0.0 4 110
- 0.25013 1 0 ack 40 ------- 1 1.0 0.0 4 110
r 0.25013 0 2 tcp 1040 ------- 1 0.1 2.0 4 63
+ 0.25013 2 0 ack 40 ------- 1 2.0 0.1 4 111
- 0.25013 2 0 ack 40 ------- 1 2.0 0.1 4 111
r 0.25013 0 3 tcp 1040 ------- 1 0.2 3.0 4 65
+ 0.25013 3 0 ack 40 ------- 1 3.0 0.2 4 112
- 0.25013 3 0 ack 40 ------- 1 3.0 0.2 4 112
r 0.25013 0 4 tcp 1040 ------- 1 0.3 4.0 4 67
+ 0.25013 4 0 ack 40 ------- 1 4.0 0.3 4 113
- 0.25013 4 0 ack 40 ------- 1 4.0 0.3 4 113
r 0.25013 1 2 tcp 1040 ------- 1 1.1 2.1 4 69
+ 0.25013 2 1 ack 40 ------- 1 2.1 1.1 4 114
- 0.25013 2 1 ack 40 ------- 1 2.1 1.1 4 114
r 0.25013 1 3 tcp 1040 ------- 1 1.2 3.1 4 71
+ 0.25013 3 1 ack 40 ------- 1 3.1 1.2 4 115
- 0.25013 3 1 ack 40 ------- 1 3.1 1.2 4 115
r 0.25013 1 4 tcp 1040 ------- 1 1.3 4.1 4 73
+ 0.25013 4 1 ack 40 ------- 1 4.1 1.3 4 116
- 0.25013 4 1 ack 40 ------- 1 4.1 1.3 4 116
r 0.25013 2 3 tcp 1040 ------- 1 2.2 3.2 4 75
+ 0.25013 3 2 ack 40 ------- 1 3.2 2.2 4 117
- 0.25013 3 2 ack 40 ------- 1 3.2 2.2 4 117
r 0.25013 2 4 tcp 1040 ------- 1 2.3 4.2 4 77
+ 0.25013 4 2 ack 40 ------- 1 4.2 2.3 4 118
- 0.25013 4 2 ack 40 ------- 1 4.2 2.3 4 118
r 0.25013 3 4 tcp 1040 ------- 1 3.3 4.3 4 79
+ 0.25013 4 3 ack 40 ------- 1 4.3 3.3 4 119
- 0.25013 4 3 ack 40 ------- 1 4.3 3.3 4 119
r 0.250171 0 1 tcp 1040 ------- 1 0.0 1.0 5 80
+ 0.250171 1 0 ack 40 ------- 1 1.0 0.0 5 120
- 0.250171 1 0 ack 40 ------- 1 1.0 0.0 5 120
r 0.250171 0 2 tcp 1040 ------- 1 0.1 2.0 5 82
+ 0.250171 2 0 ack 40 ------- 1 2.0 0.1 5 121
- 0.250171 2 0 ack 40 ------- 1 2.0 0.1 5 121
r 0.250171 0 3 tcp 1040 ------- 1 0.2 3.0 5 84
+ 0.250171 3 0 ack 40 ------- 1 3.0 0.2 5 122
- 0.250171 3 0 ack 40 ------- 1 3.0 0.2 5 122
r 0.250171 0 4 tcp 1040 ------- 1 0.3 4.0 5 86
+ 0.250171 4 0 ack 40 ------- 1 4.0 0.3 5 123
- 0.250171 4 0 ack 40 ------- 1 4.0 0.3 5 123
r 0.250171 1 2 tcp 1040 ------- 1 1.1 2.1 5 88
+ 0.250171 2 1 ack 40 ------- 1 2.1 1.1 5 124
- 0.250171 2 1 ack 40 ------- 1 2.1 1.1 5 124
r 0.250171 1 3 tcp 1040 ------- 1 1.2 3.1 5 90
+ 0.250171 3 1 ack 40 ------- 1 3.1 1.2 5 125
- 0.250171 3 1 ack 40 ------- 1 3.1 1.2 5 125
r 0.250171 1 4 tcp 1040 ------- 1 1.3 4.1 5 92
+ 0.250171 4 1 ack 40 ------- 1 4.1 1.3 5 126
- 0.250171 4 1 ack 40 ------- 1 4.1 1.3 5 126
r 0.250171 2 3 tcp 1040 ------- 1 2.2 3.2 5 94
+ 0.250171 3 2 ack 40 ------- 1 3.2 2.2 5 127
- 0.250171 3 2 ack 40 ------- 1 3.2 2.2 5 127
r 0.250171 2 4 tcp 1040 ------- 1 2.3 4.2 5 96
+ 0.250171 4 2 ack 40 ------- 1 4.2 2.3 5 128
- 0.250171 4 2 ack 40 ------- 1 4.2 2.3 5 128
r 0.250171 3 4 tcp 1040 ------- 1 3.3 4.3 5 98
+ 0.250171 4 3 ack 40 ------- 1 4.3 3.3 5 129
- 0.250171 4 3 ack 40 ------- 1 4.3 3.3 5 129
r 0.250213 0 1 tcp 1040 ------- 1 0.0 1.0 6 81
+ 0.250213 1 0 ack 40 ------- 1 1.0 0.0 6 130
- 0.250213 1 0 ack 40 ------- 1 1.0 0.0 6 130
r 0.250213 0 2 tcp 1040 ------- 1 0.1 2.0 6 83
+ 0.250213 2 0 ack 40 ------- 1 2.0 0.1 6 131
- 0.250213 2 0 ack 40 ------- 1 2.0 0.1 6 131
r 0.250213 0 3 tcp 1040 ------- 1 0.2 3.0 6 85
+ 0.250213 3 0 ack 40 ------- 1 3.0 0.2 6 132
- 0.250213 3 0 ack 40 ------- 1 3.0 0.2 6 132
r 0.250213 0 4 tcp 1040 ------- 1 0.3 4.0 6 87
+ 0.250213 4 0 ack 40 ------- 1 4.0 0.3 6 133
- 0.250213 4 0 ack 40 ------- 1 4.0 0.3 6 133
r 0.250213 1 2 tcp 1040 ------- 1 1.1 2.1 6 89
+ 0.250213 2 1 ack 40 ------- 1 2.1 1.1 6 134
- 0.250213 2 1 ack 40 ------- 1 2.1 1.1 6 134
r 0.250213 1 3 tcp 1040 ------- 1 1.2 3.1 6 91
+ 0.250213 3 1 ack 40 ------- 1 3.1 1.2 6 135
- 0.250213 3 1 ack 40 ------- 1 3.1 1.2 6 135
r 0.250213 1 4 tcp 1040 ------- 1 1.3 4.1 6 93
+ 0.250213 4 1 ack 40 ------- 1 4.1 1.3 6 136
- 0.250213 4 1 ack 40 ------- 1 4.1 1.3 6 136
r 0.250213 2 3 tcp 1040 ------- 1 2.2 3.2 6 95
+ 0.250213 3 2 ack 40 ------- 1 3.2 2.2 6 137
- 0.250213 3 2 ack 40 ------- 1 3.2 2.2 6 137
r 0.250213 2 4 tcp 1040 ------- 1 2.3 4.2 6 97
+ 0.250213 4 2 ack 40 ------- 1 4.2 2.3 6 138
- 0.250213 4 2 ack 40 ------- 1 4.2 2.3 6 138
r 0.250213 3 4 tcp 1040 ------- 1 3.3 4.3 6 99
+ 0.250213 4 3 ack 40 ------- 1 4.3 3.3 6 139
- 0.250213 4 3 ack 40 ------- 1 4.3 3.3 6 139
r 0.26009 1 0 ack 40 ------- 1 1.0 0.0 3 100
+ 0.26009 0 1 tcp 1040 ------- 1 0.0 1.0 7 140
- 0.26009 0 1 tcp 1040 ------- 1 0.0 1.0 7 140
+ 0.26009 0 1 tcp 1040 ------- 1 0.0 1.0 8 141
r 0.26009 2 0 ack 40 ------- 1 2.0 0.1 3 101
+ 0.26009 0 2 tcp 1040 ------- 1 0.1 2.0 7 142
- 0.26009 0 2 tcp 1040 ------- 1 0.1 2.0 7 142
+ 0.26009 0 2 tcp 1040 ------- 1 0.1 2.0 8 143
r 0.26009 3 0 ack 40 ------- 1 3.0 0.2 3 102
+ 0.26009 0 3 tcp 1040 ------- 1 0.2 3.0 7 144
- 0.26009 0 3 tcp 1040 ------- 1 0.2 3.0 7 144
+ 0.26009 0 3 tcp 1040 ------- 1 0.2 3.0 8 145
r 0.26009 4 0 ack 40 ------- 1 4.0 0.3 3 103
+ 0.26009 0 4 tcp 1040 ------- 1 0.3 4.0 7 146
- 0.26009 0 4 tcp 1040 ------- 1 0.3 4.0 7 146
+ 0.26009 0 4 tcp 1040 ------- 1 0.3 4.0 8 147
r 0.26009 2 1 ack 40 ------- 1 2.1 1.1 3 104
+ 0.26009 1 2 tcp 1040 ------- 1 1.1 2.1 7 148
- 0.26009 1 2 tcp 1040 ------- 1 1.1 2.1 7 148
+ 0.26009 1 2 tcp 1040 ------- 1 1.1 2.1 8 149
r 0.26009 3 1 ack 40 ------- 1 3.1 1.2 3 105
+ 0.26009 1 3 tcp 1040 ------- 1 1.2 3.1 7 150
- 0.26009 1 3 tcp 1040 ------- 1 1.2 3.1 7 150
+ 0.26009 1 3 tcp 1040 ------- 1 1.2 3.1 8 151
r 0.26009 4 1 ack 40 ------- 1 4.1 1.3 3 106
+ 0.26009 1 4 tcp 1040 ------- 1 1.3 4.1 7 152
- 0.26009 1 4 tcp 1040 ------- 1 1.3 4.1 7 152
+ 0.26009 1 4 tcp 1040 ------- 1 1.3 4.1 8 153
r 0.26009 3 2 ack 40 ------- 1 3.2 2.2 3 107
+ 0.26009 2 3 tcp 1040 ------- 1 2.2 3.2 7 154
- 0.26009 2 3 tcp 1040 ------- 1 2.2 3.2 7 154
+ 0.26009 2 3 tcp 1040 ------- 1 2.2 3.2 8 155
r 0.26009 4 2 ack 40 ------- 1 4.2 2.3 3 108
+ 0.26009 2 4 tcp 1040 ------- 1 2.3 4.2 7 156
- 0.26009 2 4 tcp 1040 ------- 1 2.3 4.2 7 156
+ 0.26009 2 4 tcp 1040 ------- 1 2.3 4.2 8 157
r 0.26009 4 3 ack 40 ------- 1 4.3 3.3 3 109
+ 0.26009 3 4 tcp 1040 ------- 1 3.3 4.3 7 158
- 0.26009 3 4 tcp 1040 ------- 1 3.3 4.3 7 158
+ 0.26009 3 4 tcp 1040 ------- 1 3.3 4.3 8 159
r 0.260131 1 0 ack 40 ------- 1 1.0 0.0 4 110
+ 0.260131 0 1 tcp 1040 ------- 1 0.0 1.0 9 160
+ 0.260131 0 1 tcp 1040 ------- 1 0.0 1.0 10 161
r 0.260131 2 0 ack 40 ------- 1 2.0 0.1 4 111
+ 0.260131 0 2 tcp 1040 ------- 1 0.1 2.0 9 162
+ 0.260131 0 2 tcp 1040 ------- 1 0.1 2.0 10 163
r 0.260131 3 0 ack 40 ------- 1 3.0 0.2 4 112
+ 0.260131 0 3 tcp 1040 ------- 1 0.2 3.0 9 164
+ 0.260131 0 3 tcp 1040 ------- 1 0.2 3.0 10 165
r 0.260131 4 0 ack 40 ------- 1 4.0 0.3 4 113
+ 0.260131 0 4 tcp 1040 ------- 1 0.3 4.0 9 166
+ 0.260131 0 4 tcp 1040 ------- 1 0.3 4.0 10 167
r 0.260131 2 1 ack 40 ------- 1 2.1 1.1 4 114
+ 0.260131 1 2 tcp 1040 ------- 1 1.1 2.1 9 168
+ 0.260131 1 2 tcp 1040 ------- 1 1.1 2.1 10 169
r 0.260131 3 1 ack 40 ------- 1 3.1 1.2 4 115
+ 0.260131 1 3 tcp 1040 ------- 1 1.2 3.1 9 170
+ 0.260131 1 3 tcp 1040 ------- 1 1.2 3.1 10 171
r 0.260131 4 1 ack 40 ------- 1 4.1 1.3 4 116
+ 0.260131 1 4 tcp 1040 ------- 1 1.3 4.1 9 172
+ 0.260131 1 4 tcp 1040 ------- 1 1.3 4.1 10 173
r 0.260131 3 2 ack 40 ------- 1 3.2 2.2 4 117
+ 0.260131 2 3 tcp 1040 ------- 1 2.2 3.2 9 174
+ 0.260131 2 3 tcp 1040 ------- 1 2.2 3.2 10 175
r 0.260131 4 2 ack 40 ------- 1 4.2 2.3 4 118
+ 0.260131 2 4 tcp 1040 ------- 1 2.3 4.2 9 176
+ 0.260131 2 4 tcp 1040 ------- 1 2.3 4.2 10 177
r 0.260131 4 3 ack 40 ------- 1 4.3 3.3 4 119
+ 0.260131 3 4 tcp 1040 ------- 1 3.3 4.3 9 178
+ 0.260131 3 4 tcp 1040 ------- 1 3.3 4.3 10 179
- 0.260131 0 1 tcp 1040 ------- 1 0.0 1.0 8 141
- 0.260131 0 2 tcp 1040 ------- 1 0.1 2.0 8 143
- 0.260131 0 3 tcp 1040 ------- 1 0.2 3.0 8 145
- 0.260131 0 4 tcp 1040 ------- 1 0.3 4.0 8 147
- 0.260131 1 2 tcp 1040 ------- 1 1.1 2.1 8 149
- 0.260131 1 3 tcp 1040 ------- 1 1.2 3.1 8 151
- 0.260131 1 4 tcp 1040 ------- 1 1.3 4.1 8 153
- 0.260131 2 3 tcp 1040 ------- 1 2.2 3.2 8 155
- 0.260131 2 4 tcp 1040 ------- 1 2.3 4.2 8 157
- 0.260131 3 4 tcp 1040 ------- 1 3.3 4.3 8 159
- 0.260173 0 1 tcp 1040 ------- 1 0.0 1.0 9 160
- 0.260173 0 2 tcp 1040 ------- 1 0.1 2.0 9 162
- 0.260173 0 3 tcp 1040 ------- 1 0.2 3.0 9 164
- 0.260173 0 4 tcp 1040 ------- 1 0.3 4.0 9 166
- 0.260173 1 2 tcp 1040 ------- 1 1.1 2.1 9 168
- 0.260173 1 3 tcp 1040 ------- 1 1.2 3.1 9 170
- 0.260173 1 4 tcp 1040 ------- 1 1.3 4.1 9 172
- 0.260173 2 3 tcp 1040 ------- 1 2.2 3.2 9 174
- 0.260173 2 4 tcp 1040 ------- 1 2.3 4.2 9 176
- 0.260173 3 4 tcp 1040 ------- 1 3.3 4.3 9 178
r 0.260173 1 0 ack 40 ------- 1 1.0 0.0 5 120
+ 0.260173 0 1 tcp 1040 ------- 1 0.0 1.0 11 180
+ 0.260173 0 1 tcp 1040 ------- 1 0.0 1.0 12 181
r 0.260173 2 0 ack 40 ------- 1 2.0 0.1 5 121
+ 0.260173 0 2 tcp 1040 ------- 1 0.1 2.0 11 182
+ 0.260173 0 2 tcp 1040 ------- 1 0.1 2.0 12 183
r 0.260173 3 0 ack 40 ------- 1 3.0 0.2 5 122
+ 0.260173 0 3 tcp 1040 ------- 1 0.2 3.0 11 184
+ 0.260173 0 3 tcp 1040 ------- 1 0.2 3.0 12 185
r 0.260173 4 0 ack 40 ------- 1 4.0 0.3 5 123
+ 0.260173 0 4 tcp 1040 ------- 1 0.3 4.0 11 186
+ 0.260173 0 4 tcp 1040 ------- 1 0.3 4.0 12 187
r 0.260173 2 1 ack 40 ------- 1 2.1 1.1 5 124
+ 0.260173 1 2 tcp 1040 ------- 1 1.1 2.1 11 188
+ 0.260173 1 2 tcp 1040 ------- 1 1.1 2.1 12 189
r 0.260173 3 1 ack 40 ------- 1 3.1 1.2 5 125
+ 0.260173 1 3 tcp 1040 ------- 1 1.2 3.1 11 190
+ 0.260173 1 3 tcp 1040 ------- 1 1.2 3.1 12 191
r 0.260173 4 1 ack 40 ------- 1 4.1 1.3 5 126
+ 0.260173 1 4 tcp 1040 ------- 1 1.3 4.1 11 192
+ 0.260173 1 4 tcp 1040 ------- 1 1.3 4.1 12 193
r 0.260173 3 2 ack 40 ------- 1 3.2 2.2 5 127
+ 0.260173 2 3 tcp 1040 ------- 1 2.2 3.2 11 194
+ 0.260173 2 3 tcp 1040 ------- 1 2.2 3.2 12 195
r 0.260173 4 2 ack 40 ------- 1 4.2 2.3 5 128
+ 0.260173 2 4 tcp 1040 ------- 1 2.3 4.2 11 196
+ 0.260173 2 4 tcp 1040 ------- 1 2.3 4.2 12 197
r 0.260173 4 3 ack 40 ------- 1 4.3 3.3 5 129
+ 0.260173 3 4 tcp 1040 ------- 1 3.3 4.3 11 198
+ 0.260173 3 4 tcp 1040 ------- 1 3.3 4.3 12 199
- 0.260214 0 1 tcp 1040 ------- 1 0.0 1.0 10 161
- 0.260214 0 2 tcp 1040 ------- 1 0.1 2.0 10 163
- 0.260214 0 3 tcp 1040 ------- 1 0.2 3.0 10 165
- 0.260214 0 4 tcp 1040 ------- 1 0.3 4.0 10 167
- 0.260214 1 2 tcp 1040 ------- 1 1.1 2.1 10 169
- 0.260214 1 3 tcp 1040 ------- 1 1.2 3.1 10 171
- 0.260214 1 4 tcp 1040 ------- 1 1.3 4.1 10 173
- 0.260214 2 3 tcp 1040 ------- 1 2.2 3.2 10 175
- 0.260214 2 4 tcp 1040 ------- 1 2.3 4.2 10 177
- 0.260214 3 4 tcp 1040 ------- 1 3.3 4.3 10 179
r 0.260214 1 0 ack 40 ------- 1 1.0 0.0 6 130
+ 0.260214 0 1 tcp 1040 ------- 1 0.0 1.0 13 200
+ 0.260214 0 1 tcp 1040 ------- 1 0.0 1.0 14 201
r 0.260214 2 0 ack 40 ------- 1 2.0 0.1 6 131
+ 0.260214 0 2 tcp 1040 ------- 1 0.1 2.0 13 202
+ 0.260214 0 2 tcp 1040 ------- 1 0.1 2.0 14 203
r 0.260214 3 0 ack 40 ------- 1 3.0 0.2 6 132
+ 0.260214 0 3 tcp 1040 ------- 1 0.2 3.0 13 204
+ 0.260214 0 3 tcp 1040 ------- 1 0.2 3.0 14 205
r 0.260214 4 0 ack 40 ------- 1 4.0 0.3 6 133
+ 0.260214 0 4 tcp 1040 ------- 1 0.3 4.0 13 206
+ 0.260214 0 4 tcp 1040 ------- 1 0.3 4.0 14 207
r 0.260214 2 1 ack 40 ------- 1 2.1 1.1 6 134
+ 0.260214 1 2 tcp 1040 ------- 1 1.1 2.1 13 208
+ 0.260214 1 2 tcp 1040 ------- 1 1.1 2.1 14 209
r 0.260214 3 1 ack 40 ------- 1 3.1 1.2 6 135
+ 0.260214 1 3 tcp 1040 ------- 1 1.2 3.1 13 210
+ 0.260214 1 3 tcp 1040 ------- 1 1.2 3.1 14 211
r 0.260214 4 1 ack 40 ------- 1 4.1 1.3 6 136
+ 0.260214 1 4 tcp 1040 ------- 1 1.3 4.1 13 212
+ 0.260214 1 4 tcp 1040 ------- 1 1.3 4.1 14 213
r 0.260214 3 2 ack 40 ------- 1 3.2 2.2 6 137
+ 0.260214 2 3 tcp 1040 ------- 1 2.2 3.2 13 214
+ 0.260214 2 3 tcp 1040 ------- 1 2.2 3.2 14 215
r 0.260214 4 2 ack 40 ------- 1 4.2 2.3 6 138
+ 0.260214 2 4 tcp 1040 ------- 1 2.3 4.2 13 216
+ 0.260214 2 4 tcp 1040 ------- 1 2.3 4.2 14 217
r 0.260214 4 3 ack 40 ------- 1 4.3 3.3 6 139
+ 0.260214 3 4 tcp 1040 ------- 1 3.3 4.3 13 218
+ 0.260214 3 4 tcp 1040 ------- 1 3.3 4.3 14 219
- 0.260256 0 1 tcp 1040 ------- 1 0.0 1.0 11 180
- 0.260256 0 2 tcp 1040 ------- 1 0.1 2.0 11 182
- 0.260256 0 3 tcp 1040 ------- 1 0.2 3.0 11 184
- 0.260256 0 4 tcp 1040 ------- 1 0.3 4.0 11 186
- 0.260256 1 2 tcp 1040 ------- 1 1.1 2.1 11 188
- 0.260256 1 3 tcp 1040 ------- 1 1.2 3.1 11 190
- 0.260256 1 4 tcp 1040 ------- 1 1.3 4.1 11 192
- 0.260256 2 3 tcp 1040 ------- 1 2.2 3.2 11 194
- 0.260256 2 4 tcp 1040 ------- 1 2.3 4.2 11 196
- 0.260256 3 4 tcp 1040 ------- 1 3.3 4.3 11 198
- 0.260298 0 1 tcp 1040 ------- 1 0.0 1.0 12 181
- 0.260298 0 2 tcp 1040 ------- 1 0.1 2.0 12 183
- 0.260298 0 3 tcp 1040 ------- 1 0.2 3.0 12 185
- 0.260298 0 4 tcp 1040 ------- 1 0.3 4.0 12 187
- 0.260298 1 2 tcp 1040 ------- 1 1.1 2.1 12 189
- 0.260298 1 3 tcp 1040 ------- 1 1.2 3.1 12 191
- 0.260298 1 4 tcp 1040 ------- 1 1.3 4.1 12 193
- 0.260298 2 3 tcp 1040 ------- 1 2.2 3.2 12 195
- 0.260298 2 4 tcp 1040 ------- 1 2.3 4.2 12 197
- 0.260298 3 4 tcp 1040 ------- 1 3.3 4.3 12 199
- 0.260339 0 1 tcp 1040 ------- 1 0.0 1.0 13 200
- 0.260339 0 2 tcp 1040 ------- 1 0.1 2.0 13 202
- 0.260339 0 3 tcp 1040 ------- 1 0.2 3.0 13 204
- 0.260339 0 4 tcp 1040 ------- 1 0.3 4.0 13 206
- 0.260339 1 2 tcp 1040 ------- 1 1.1 2.1 13 208
- 0.260339 1 3 tcp 1040 ------- 1 1.2 3.1 13 210
- 0.260339 1 4 tcp 1040 ------- 1 1.3 4.1 13 212
- 0.260339 2 3 tcp 1040 ------- 1 2.2 3.2 13 214
- 0.260339 2 4 tcp 1040 ------- 1 2.3 4.2 13 216
- 0.260339 3 4 tcp 1040 ------- 1 3.3 4.3 13 218
- 0.260381 0 1 tcp 1040 ------- 1 0.0 1.0 14 201
- 0.260381 0 2 tcp 1040 ------- 1 0.1 2.0 14 203
- 0.260381 0 3 tcp 1040 ------- 1 0.2 3.0 14 205
- 0.260381 0 4 tcp 1040 ------- 1 0.3 4.0 14 207
- 0.260381 1 2 tcp 1040 ------- 1 1.1 2.1 14 209
- 0.260381 1 3 tcp 1040 ------- 1 1.2 3.1 14 211
- 0.260381 1 4 tcp 1040 ------- 1 1.3 4.1 14 213
- 0.260381 2 3 tcp 1040 ------- 1 2.2 3.2 14 215
- 0.260381 2 4 tcp 1040 ------- 1 2.3 4.2 14 217
- 0.260381 3 4 tcp 1040 ------- 1 3.3 4.3 14 219
r 0.270131 0 1 tcp 1040 ------- 1 0.0 1.0 7 140
+ 0.270131 1 0 ack 40 ------- 1 1.0 0.0 7 220
- 0.270131 1 0 ack 40 ------- 1 1.0 0.0 7 220
r 0.270131 0 2 tcp 1040 ------- 1 0.1 2.0 7 142
+ 0.270131 2 0 ack 40 ------- 1 2.0 0.1 7 221
- 0.270131 2 0 ack 40 ------- 1 2.0 0.1 7 221
r 0.270131 0 3 tcp 1040 ------- 1 0.2 3.0 7 144
+ 0.270131 3 0 ack 40 ------- 1 3.0 0.2 7 222
- 0.270131 3 0 ack 40 ------- 1 3.0 0.2 7 222
r 0.270131 0 4 tcp 1040 ------- 1 0.3 4.0 7 146
+ 0.270131 4 0 ack 40 ------- 1 4.0 0.3 7 223
- 0.270131 4 0 ack 40 ------- 1 4.0 0.3 7 223
r 0.270131 1 2 tcp 1040 ------- 1 1.1 2.1 7 148
+ 0.270131 2 1 ack 40 ------- 1 2.1 1.1 7 224
- 0.270131 2 1 ack 40 ------- 1 2.1 1.1 7 224
r 0.270131 1 3 tcp 1040 ------- 1 1.2 3.1 7 150
+ 0.270131 3 1 ack 40 ------- 1 3.1 1.2 7 225
- 0.270131 3 1 ack 40 ------- 1 3.1 1.2 7 225
r 0.270131 1 4 tcp 1040 ------- 1 1.3 4.1 7 152
+ 0.270131 4 1 ack 40 ------- 1 4.1 1.3 7 226
- 0.270131 4 1 ack 40 ------- 1 4.1 1.3 7 226
r 0.270131 2 3 tcp 1040 ------- 1 2.2 3.2 7 154
+ 0.270131 3 2 ack 40 ------- 1 3.2 2.2 7 227
- 0.270131 3 2 ack 40 ------- 1 3.2 2.2 7 227
r 0.270131 2 4 tcp 1040 ------- 1 2.3 4.2 7 156
+ 0.270131 4 2 ack 40 ------- 1 4.2 2.3 7 228
- 0.270131 4 2 ack 40 ------- 1 4.2 2.3 7 228
r 0.270131 3 4 tcp 1040 ------- 1 3.3 4.3 7 158
+ 0.270131 4 3 ack 40 ------- 1 4.3 3.3 7 229
- 0.270131 4 3 ack 40 ------- 1 4.3 3.3 7 229
r 0.270173 0 1 tcp 1040 ------- 1 0.0 1.0 8 141
+ 0.270173 1 0 ack 40 ------- 1 1.0 0.0 8 230
- 0.270173 1 0 ack 40 ------- 1 1.0 0.0 8 230
r 0.270173 0 2 tcp 1040 ------- 1 0.1 2.0 8 143
+ 0.270173 2 0 ack 40 ------- 1 2.0 0.1 8 231
- 0.270173 2 0 ack 40 ------- 1 2.0 0.1 8 231
r 0.270173 0 3 tcp 1040 ------- 1 0.2 3.0 8 145
+ 0.270173 3 0 ack 40 ------- 1 3.0 0.2 8 232
- 0.270173 3 0 ack 40 ------- 1 3.0 0.2 8 232
r 0.270173 0 4 tcp 1040 ------- 1 0.3 4.0 8 147
+ 0.270173 4 0 ack 40 ------- 1 4.0 0.3 8 233
- 0.270173 4 0 ack 40 ------- 1 4.0 0.3 8 233
r 0.270173 1 2 tcp 1040 ------- 1 1.1 2.1 8 149
+ 0.270173 2 1 ack 40 ------- 1 2.1 1.1 8 234
- 0.270173 2 1 ack 40 ------- 1 2.1 1.1 8 234
r 0.270173 1 3 tcp 1040 ------- 1 1.2 3.1 8 151
+ 0.270173 3 1 ack 40 ------- 1 3.1 1.2 8 235
- 0.270173 3 1 ack 40 ------- 1 3.1 1.2 8 235
r 0.270173 1 4 tcp 1040 ------- 1 1.3 4.1 8 153
+ 0.270173 4 1 ack 40 ------- 1 4.1 1.3 8 236
- 0.270173 4 1 ack 40 ------- 1 4.1 1.3 8 236
r 0.270173 2 3 tcp 1040 ------- 1 2.2 3.2 8 155
+ 0.270173 3 2 ack 40 ------- 1 3.2 2.2 8 237
- 0.270173 3 2 ack 40 ------- 1 3.2 2.2 8 237
r 0.270173 2 4 tcp 1040 ------- 1 2.3 4.2 8 157
+ 0.270173 4 2 ack 40 ------- 1 4.2 2.3 8 238
- 0.270173 4 2 ack 40 ------- 1 4.2 2.3 8 238
r 0.270173 3 4 tcp 1040 ------- 1 3.3 4.3 8 159
+ 0.270173 4 3 ack 40 ------- 1 4.3 3.3 8 239
- 0.270173 4 3 ack 40 ------- 1 4.3 3.3 8 239
r 0.270214 0 1 tcp 1040 ------- 1 0.0 1.0 9 160
+ 0.270214 1 0 ack 40 ------- 1 1.0 0.0 9 240
- 0.270214 1 0 ack 40 ------- 1 1.0 0.0 9 240
r 0.270214 0 2 tcp 1040 ------- 1 0.1 2.0 9 162
+ 0.270214 2 0 ack 40 ------- 1 2.0 0.1 9 241